
     Program PWSCF v.8.0dev starts on 22Jul2026 at  1:15:25 
        Git branch: develop
        Last git commit: 5cea3446c983f943a236bc42ed84c76056277d1b
        Last git commit date: Fri Jul 17 20:25:47 2026 +0000
        Last git commit subject: Merge branch 'flang-suppress-warning' into 'develo

     This program is part of the open-source Quantum ESPRESSO suite
     for quantum simulation of materials; please cite
         "P. Giannozzi et al., J. Phys.:Condens. Matter 21 395502 (2009);
         "P. Giannozzi et al., J. Phys.:Condens. Matter 29 465901 (2017);
         "P. Giannozzi et al., J. Chem. Phys. 152 154105 (2020);
          URL http://www.quantum-espresso.org", 
     in publications or presentations arising from this work. More details at
     http://www.quantum-espresso.org/quote

     Parallel version (MPI), running on     4 processors

     MPI processes distributed on     1 nodes
     1031 MiB available memory on the printing compute node when the environment starts

     Reading input from iron.scf.in

     Current dimensions of program PWSCF are:
     Max number of different atomic species (ntypx) = 10
     Max number of k-points (npk) =  40000
     Max angular momentum in pseudopotentials (lmaxx) =  4

     Fixed quantization axis for GGA:     0.000000    0.000000    1.000000

     K-points division:     npool     =       4
     Subspace diagonalization in iterative solution of the eigenvalue problem:
     a serial algorithm will be used


     G-vector sticks info
     --------------------
     sticks:   dense  smooth     PW     G-vecs:    dense   smooth      PW
     Sum         821     333    103                14963     3805     683

     Using Slab Decomposition



     bravais-lattice index     =            3
     lattice parameter (alat)  =       5.4200  a.u.
     unit-cell volume          =      79.6100 (a.u.)^3
     number of atoms/cell      =            1
     number of atomic types    =            1
     number of electrons       =        16.00
     number of Kohn-Sham states=           68
     kinetic-energy cutoff     =      50.0000  Ry
     charge density cutoff     =     500.0000  Ry
     scf convergence threshold =      1.0E-08
     mixing beta               =       0.1000
     number of iterations used =            8  plain     mixing
     Exchange-correlation= PBE
                           (   1   4   3   4   0   0   0)
     Noncollinear calculation with spin-orbit


     celldm(1)=   5.420000  celldm(2)=   0.000000  celldm(3)=   0.000000
     celldm(4)=   0.000000  celldm(5)=   0.000000  celldm(6)=   0.000000

     crystal axes: (cart. coord. in units of alat)
               a(1) = (   0.500000   0.500000   0.500000 )  
               a(2) = (  -0.500000   0.500000   0.500000 )  
               a(3) = (  -0.500000  -0.500000   0.500000 )  

     reciprocal axes: (cart. coord. in units 2 pi/alat)
               b(1) = (  1.000000  0.000000  1.000000 )  
               b(2) = ( -1.000000  1.000000  0.000000 )  
               b(3) = (  0.000000 -1.000000  1.000000 )  


     PseudoPot. # 1 for Fe read from file:
     ./Fe.rel-pbe-spn-rrkjus_psl.0.2.1.UPF
     MD5 check sum: d52b7f5db05852f7cd370f850bf86523
     Pseudo is Ultrasoft + core correction, Zval = 16.0
     Generated using "atomic" code by A. Dal Corso  v.5.0.2 svn rev. 9415
     Using radial grid of 1191 points, 10 beta functions with: 
                l(1) =   0
                l(2) =   0
                l(3) =   1
                l(4) =   1
                l(5) =   1
                l(6) =   1
                l(7) =   2
                l(8) =   2
                l(9) =   2
               l(10) =   2
     Q(r) pseudized with 0 coefficients 


     atomic species   valence    mass     pseudopotential
     Fe               16.00     1.00000     Fe( 1.00)

     16 Sym. Ops., with inversion, found


                                    s                        frac. trans.

      isym =  1     identity                                     

 Time Reversal            0
 cryst.   s( 1) = (     1          0          0      )
                  (     0          1          0      )
                  (     0          0          1      )

 cart.    s( 1) = (  1.0000000  0.0000000  0.0000000 )
                  (  0.0000000  1.0000000  0.0000000 )
                  (  0.0000000  0.0000000  1.0000000 )


      isym =  2     180 deg rotation - cart. axis [0,0,1]        

 Time Reversal            0
 cryst.   s( 2) = (     0          0          1      )
                  (     1         -1          1      )
                  (     1          0          0      )

 cart.    s( 2) = ( -1.0000000  0.0000000  0.0000000 )
                  (  0.0000000 -1.0000000  0.0000000 )
                  (  0.0000000  0.0000000  1.0000000 )


      isym =  3     180 deg rotation - cart. axis [0,1,0]        

 Time Reversal            1
 cryst.   s( 3) = (    -1          1         -1      )
                  (     0          0         -1      )
                  (     0         -1          0      )

 cart.    s( 3) = ( -1.0000000  0.0000000  0.0000000 )
                  (  0.0000000  1.0000000  0.0000000 )
                  (  0.0000000  0.0000000 -1.0000000 )


      isym =  4     180 deg rotation - cart. axis [1,0,0]        

 Time Reversal            1
 cryst.   s( 4) = (     0         -1          0      )
                  (    -1          0          0      )
                  (    -1          1         -1      )

 cart.    s( 4) = (  1.0000000  0.0000000  0.0000000 )
                  (  0.0000000 -1.0000000  0.0000000 )
                  (  0.0000000  0.0000000 -1.0000000 )


      isym =  5     180 deg rotation - cart. axis [1,1,0]        

 Time Reversal            1
 cryst.   s( 5) = (     0          0         -1      )
                  (     0         -1          0      )
                  (    -1          0          0      )

 cart.    s( 5) = (  0.0000000  1.0000000  0.0000000 )
                  (  1.0000000  0.0000000  0.0000000 )
                  (  0.0000000  0.0000000 -1.0000000 )


      isym =  6     180 deg rotation - cart. axis [1,-1,0]       

 Time Reversal            1
 cryst.   s( 6) = (    -1          0          0      )
                  (    -1          1         -1      )
                  (     0          0         -1      )

 cart.    s( 6) = (  0.0000000 -1.0000000  0.0000000 )
                  ( -1.0000000  0.0000000  0.0000000 )
                  (  0.0000000  0.0000000 -1.0000000 )


      isym =  7      90 deg rotation - cart. axis [0,0,-1]       

 Time Reversal            0
 cryst.   s( 7) = (     1         -1          1      )
                  (     1          0          0      )
                  (     0          1          0      )

 cart.    s( 7) = (  0.0000000  1.0000000  0.0000000 )
                  ( -1.0000000  0.0000000  0.0000000 )
                  (  0.0000000  0.0000000  1.0000000 )


      isym =  8      90 deg rotation - cart. axis [0,0,1]        

 Time Reversal            0
 cryst.   s( 8) = (     0          1          0      )
                  (     0          0          1      )
                  (     1         -1          1      )

 cart.    s( 8) = (  0.0000000 -1.0000000  0.0000000 )
                  (  1.0000000  0.0000000  0.0000000 )
                  (  0.0000000  0.0000000  1.0000000 )


      isym =  9     inversion                                    

 Time Reversal            0
 cryst.   s( 9) = (    -1          0          0      )
                  (     0         -1          0      )
                  (     0          0         -1      )

 cart.    s( 9) = ( -1.0000000  0.0000000  0.0000000 )
                  (  0.0000000 -1.0000000  0.0000000 )
                  (  0.0000000  0.0000000 -1.0000000 )


      isym = 10     inv. 180 deg rotation - cart. axis [0,0,1]   

 Time Reversal            0
 cryst.   s(10) = (     0          0         -1      )
                  (    -1          1         -1      )
                  (    -1          0          0      )

 cart.    s(10) = (  1.0000000  0.0000000  0.0000000 )
                  (  0.0000000  1.0000000  0.0000000 )
                  (  0.0000000  0.0000000 -1.0000000 )


      isym = 11     inv. 180 deg rotation - cart. axis [0,1,0]   

 Time Reversal            1
 cryst.   s(11) = (     1         -1          1      )
                  (     0          0          1      )
                  (     0          1          0      )

 cart.    s(11) = (  1.0000000  0.0000000  0.0000000 )
                  (  0.0000000 -1.0000000  0.0000000 )
                  (  0.0000000  0.0000000  1.0000000 )


      isym = 12     inv. 180 deg rotation - cart. axis [1,0,0]   

 Time Reversal            1
 cryst.   s(12) = (     0          1          0      )
                  (     1          0          0      )
                  (     1         -1          1      )

 cart.    s(12) = ( -1.0000000  0.0000000  0.0000000 )
                  (  0.0000000  1.0000000  0.0000000 )
                  (  0.0000000  0.0000000  1.0000000 )


      isym = 13     inv. 180 deg rotation - cart. axis [1,1,0]   

 Time Reversal            1
 cryst.   s(13) = (     0          0          1      )
                  (     0          1          0      )
                  (     1          0          0      )

 cart.    s(13) = (  0.0000000 -1.0000000  0.0000000 )
                  ( -1.0000000  0.0000000  0.0000000 )
                  (  0.0000000  0.0000000  1.0000000 )


      isym = 14     inv. 180 deg rotation - cart. axis [1,-1,0]  

 Time Reversal            1
 cryst.   s(14) = (     1          0          0      )
                  (     1         -1          1      )
                  (     0          0          1      )

 cart.    s(14) = (  0.0000000  1.0000000  0.0000000 )
                  (  1.0000000  0.0000000  0.0000000 )
                  (  0.0000000  0.0000000  1.0000000 )


      isym = 15     inv.  90 deg rotation - cart. axis [0,0,-1]  

 Time Reversal            0
 cryst.   s(15) = (    -1          1         -1      )
                  (    -1          0          0      )
                  (     0         -1          0      )

 cart.    s(15) = (  0.0000000 -1.0000000  0.0000000 )
                  (  1.0000000  0.0000000  0.0000000 )
                  (  0.0000000  0.0000000 -1.0000000 )


      isym = 16     inv.  90 deg rotation - cart. axis [0,0,1]   

 Time Reversal            0
 cryst.   s(16) = (     0         -1          0      )
                  (     0          0         -1      )
                  (    -1          1         -1      )

 cart.    s(16) = (  0.0000000  1.0000000  0.0000000 )
                  ( -1.0000000  0.0000000  0.0000000 )
                  (  0.0000000  0.0000000 -1.0000000 )


     the magnetic double point group is D_4h(4/mmm) [C_4h (4/m) ]
     using the double point group C_4h (4/m) 
     there are 16 classes and  8 irreducible representations
     the character table:

       E     -E    C4    -C4   C2    -C2   C4^3  -C4^3 i     -i    S4^3  -S4^3
                                                                              
G_5+   1.00 -1.00  0.71 -0.71  0.00  0.00  0.71 -0.71  1.00 -1.00  0.71 -0.71
G_6+   1.00 -1.00  0.71 -0.71  0.00  0.00  0.71 -0.71  1.00 -1.00  0.71 -0.71
G_7+   1.00 -1.00 -0.71  0.71  0.00  0.00 -0.71  0.71  1.00 -1.00 -0.71  0.71
G_8+   1.00 -1.00 -0.71  0.71  0.00  0.00 -0.71  0.71  1.00 -1.00 -0.71  0.71
G_5-   1.00 -1.00  0.71 -0.71  0.00  0.00  0.71 -0.71 -1.00  1.00 -0.71  0.71
G_6-   1.00 -1.00  0.71 -0.71  0.00  0.00  0.71 -0.71 -1.00  1.00 -0.71  0.71
G_7-   1.00 -1.00 -0.71  0.71  0.00  0.00 -0.71  0.71 -1.00  1.00  0.71 -0.71
G_8-   1.00 -1.00 -0.71  0.71  0.00  0.00 -0.71  0.71 -1.00  1.00  0.71 -0.71

       s_h   -s_h  S4    -S4  
                              
G_5+   0.00  0.00  0.71 -0.71
G_6+   0.00  0.00  0.71 -0.71
G_7+   0.00  0.00 -0.71  0.71
G_8+   0.00  0.00 -0.71  0.71
G_5-   0.00  0.00 -0.71  0.71
G_6-   0.00  0.00 -0.71  0.71
G_7-   0.00  0.00  0.71 -0.71
G_8-   0.00  0.00  0.71 -0.71

     imaginary part

       E     -E    C4    -C4   C2    -C2   C4^3  -C4^3 i     -i    S4^3  -S4^3
                                                                              
G_5+   0.00  0.00  0.71 -0.71  1.00 -1.00 -0.71  0.71  0.00  0.00  0.71 -0.71
G_6+   0.00  0.00 -0.71  0.71 -1.00  1.00  0.71 -0.71  0.00  0.00 -0.71  0.71
G_7+   0.00  0.00 -0.71  0.71  1.00 -1.00  0.71 -0.71  0.00  0.00 -0.71  0.71
G_8+   0.00  0.00  0.71 -0.71 -1.00  1.00 -0.71  0.71  0.00  0.00  0.71 -0.71
G_5-   0.00  0.00  0.71 -0.71  1.00 -1.00 -0.71  0.71  0.00  0.00 -0.71  0.71
G_6-   0.00  0.00 -0.71  0.71 -1.00  1.00  0.71 -0.71  0.00  0.00  0.71 -0.71
G_7-   0.00  0.00 -0.71  0.71  1.00 -1.00  0.71 -0.71  0.00  0.00  0.71 -0.71
G_8-   0.00  0.00  0.71 -0.71 -1.00  1.00 -0.71  0.71  0.00  0.00 -0.71  0.71

       s_h   -s_h  S4    -S4  
                              
G_5+   1.00 -1.00 -0.71  0.71
G_6+  -1.00  1.00  0.71 -0.71
G_7+   1.00 -1.00  0.71 -0.71
G_8+  -1.00  1.00 -0.71  0.71
G_5-  -1.00  1.00  0.71 -0.71
G_6-   1.00 -1.00 -0.71  0.71
G_7-  -1.00  1.00 -0.71  0.71
G_8-   1.00 -1.00  0.71 -0.71

     the symmetry operations in each class and the name of the first element:

     E             1
          identity                                               
     -E           -1
          identity E                                             
     C4            4
           90 deg rotation - cart. axis [0,0,1]                  
     -C4          -4
           90 deg rotation - cart. axis [0,0,1] E                
     C2            2
          180 deg rotation - cart. axis [0,0,1]                  
     -C2          -2
          180 deg rotation - cart. axis [0,0,1] E                
     C4^3          3
           90 deg rotation - cart. axis [0,0,-1]                 
     -C4^3        -3
           90 deg rotation - cart. axis [0,0,-1] E               
     i             5
          inversion                                              
     -i           -5
          inversion E                                            
     S4^3          8
          inv.  90 deg rotation - cart. axis [0,0,1]             
     -S4^3        -8
          inv.  90 deg rotation - cart. axis [0,0,1] E           
     s_h           6
          inv. 180 deg rotation - cart. axis [0,0,1]             
     -s_h         -6
          inv. 180 deg rotation - cart. axis [0,0,1] E           
     S4            7
          inv.  90 deg rotation - cart. axis [0,0,-1]            
     -S4          -7
          inv.  90 deg rotation - cart. axis [0,0,-1] E          

   Cartesian axes

     site n.     atom                  positions (alat units)
         1        Fe     tau(   1) = (   0.0000000   0.0000000   0.0000000  )

   Crystallographic axes

     site n.     atom                  positions (cryst. coord.)
         1        Fe     tau(   1) = (  0.0000000  0.0000000  0.0000000  )

     number of k points=    56  Methfessel-Paxton smearing, width (Ry)=  0.0200
                       cart. coord. in units 2pi/alat
        k(    1) = (   0.0000000   0.0000000   0.1250000), wk =   0.0039062
        k(    2) = (   0.0000000  -0.1250000   0.2500000), wk =   0.0156250
        k(    3) = (   0.0000000  -0.2500000   0.3750000), wk =   0.0156250
        k(    4) = (   0.0000000  -0.3750000   0.5000000), wk =   0.0156250
        k(    5) = (  -0.1250000   0.1250000   0.1250000), wk =   0.0156250
        k(    6) = (  -0.1250000  -0.1250000   0.3750000), wk =   0.0156250
        k(    7) = (  -0.1250000  -0.2500000   0.5000000), wk =   0.0312500
        k(    8) = (  -0.1250000   0.6250000  -0.3750000), wk =   0.0312500
        k(    9) = (  -0.2500000   0.2500000   0.1250000), wk =   0.0156250
        k(   10) = (  -0.2500000   0.7500000  -0.3750000), wk =   0.0156250
        k(   11) = (  -0.3750000   0.3750000   0.1250000), wk =   0.0156250
        k(   12) = (  -0.3750000   0.2500000   0.2500000), wk =   0.0312500
        k(   13) = (   0.5000000  -0.5000000   0.1250000), wk =   0.0078125
        k(   14) = (   0.5000000  -0.6250000   0.2500000), wk =   0.0312500
        k(   15) = (   0.3750000  -0.6250000   0.3750000), wk =   0.0156250
        k(   16) = (   0.0000000   0.0000000   0.3750000), wk =   0.0039062
        k(   17) = (   0.0000000  -0.1250000   0.5000000), wk =   0.0156250
        k(   18) = (   0.0000000  -0.2500000   0.6250000), wk =   0.0156250
        k(   19) = (  -0.1250000  -0.1250000   0.6250000), wk =   0.0156250
        k(   20) = (  -0.1250000   0.7500000  -0.2500000), wk =   0.0312500
        k(   21) = (   0.6250000  -0.6250000   0.3750000), wk =   0.0156250
        k(   22) = (   0.5000000  -0.5000000   0.3750000), wk =   0.0078125
        k(   23) = (   0.0000000   0.0000000   0.6250000), wk =   0.0039062
        k(   24) = (   0.0000000  -0.1250000   0.7500000), wk =   0.0156250
        k(   25) = (  -0.1250000   0.8750000  -0.1250000), wk =   0.0156250
        k(   26) = (   0.0000000   0.0000000   0.8750000), wk =   0.0039062
        k(   27) = (   0.0000000   0.1250000   0.0000000), wk =   0.0078125
        k(   28) = (  -0.1250000   0.2500000   0.0000000), wk =   0.0156250
        k(   29) = (   0.2500000   0.0000000  -0.1250000), wk =   0.0156250
        k(   30) = (  -0.2500000   0.3750000   0.0000000), wk =   0.0156250
        k(   31) = (   0.3750000   0.0000000  -0.2500000), wk =   0.0156250
        k(   32) = (  -0.3750000   0.5000000   0.0000000), wk =   0.0156250
        k(   33) = (   0.5000000   0.0000000  -0.3750000), wk =   0.0156250
        k(   34) = (  -0.1250000   0.3750000  -0.1250000), wk =   0.0312500
        k(   35) = (  -0.2500000   0.5000000  -0.1250000), wk =   0.0312500
        k(   36) = (   0.5000000  -0.1250000  -0.2500000), wk =   0.0312500
        k(   37) = (   0.6250000  -0.3750000  -0.1250000), wk =   0.0156250
        k(   38) = (   0.2500000   0.1250000  -0.2500000), wk =   0.0312500
        k(   39) = (   0.7500000  -0.3750000  -0.2500000), wk =   0.0312500
        k(   40) = (   0.3750000   0.1250000  -0.3750000), wk =   0.0312500
        k(   41) = (   0.2500000   0.2500000  -0.3750000), wk =   0.0156250
        k(   42) = (  -0.5000000   0.1250000   0.5000000), wk =   0.0156250
        k(   43) = (  -0.6250000   0.2500000   0.5000000), wk =   0.0312500
        k(   44) = (   0.2500000   0.5000000  -0.6250000), wk =   0.0312500
        k(   45) = (   0.0000000   0.3750000   0.0000000), wk =   0.0078125
        k(   46) = (  -0.1250000   0.5000000   0.0000000), wk =   0.0156250
        k(   47) = (   0.5000000   0.0000000  -0.1250000), wk =   0.0156250
        k(   48) = (  -0.2500000   0.6250000   0.0000000), wk =   0.0156250
        k(   49) = (   0.6250000   0.0000000  -0.2500000), wk =   0.0156250
        k(   50) = (  -0.1250000   0.6250000  -0.1250000), wk =   0.0312500
        k(   51) = (   0.7500000  -0.2500000  -0.1250000), wk =   0.0156250
        k(   52) = (  -0.5000000   0.3750000   0.5000000), wk =   0.0156250
        k(   53) = (   0.0000000   0.6250000   0.0000000), wk =   0.0078125
        k(   54) = (  -0.1250000   0.7500000   0.0000000), wk =   0.0156250
        k(   55) = (   0.7500000   0.0000000  -0.1250000), wk =   0.0156250
        k(   56) = (   0.0000000   0.8750000   0.0000000), wk =   0.0078125

                       cryst. coord.
        k(    1) = (   0.0625000   0.0625000   0.0625000), wk =   0.0039062
        k(    2) = (   0.0625000   0.0625000   0.1875000), wk =   0.0156250
        k(    3) = (   0.0625000   0.0625000   0.3125000), wk =   0.0156250
        k(    4) = (   0.0625000   0.0625000   0.4375000), wk =   0.0156250
        k(    5) = (   0.0625000   0.1875000   0.0625000), wk =   0.0156250
        k(    6) = (   0.0625000   0.1875000   0.3125000), wk =   0.0156250
        k(    7) = (   0.0625000   0.1875000   0.4375000), wk =   0.0312500
        k(    8) = (   0.0625000   0.1875000  -0.4375000), wk =   0.0312500
        k(    9) = (   0.0625000   0.3125000   0.0625000), wk =   0.0156250
        k(   10) = (   0.0625000   0.3125000  -0.4375000), wk =   0.0156250
        k(   11) = (   0.0625000   0.4375000   0.0625000), wk =   0.0156250
        k(   12) = (   0.0625000   0.4375000   0.1875000), wk =   0.0312500
        k(   13) = (   0.0625000  -0.4375000   0.0625000), wk =   0.0078125
        k(   14) = (   0.0625000  -0.4375000   0.1875000), wk =   0.0312500
        k(   15) = (   0.0625000  -0.3125000   0.3125000), wk =   0.0156250
        k(   16) = (   0.1875000   0.1875000   0.1875000), wk =   0.0039062
        k(   17) = (   0.1875000   0.1875000   0.3125000), wk =   0.0156250
        k(   18) = (   0.1875000   0.1875000   0.4375000), wk =   0.0156250
        k(   19) = (   0.1875000   0.3125000   0.4375000), wk =   0.0156250
        k(   20) = (   0.1875000   0.3125000  -0.4375000), wk =   0.0312500
        k(   21) = (   0.1875000  -0.4375000   0.1875000), wk =   0.0156250
        k(   22) = (   0.1875000  -0.3125000   0.1875000), wk =   0.0078125
        k(   23) = (   0.3125000   0.3125000   0.3125000), wk =   0.0039062
        k(   24) = (   0.3125000   0.3125000   0.4375000), wk =   0.0156250
        k(   25) = (   0.3125000   0.4375000  -0.4375000), wk =   0.0156250
        k(   26) = (   0.4375000   0.4375000   0.4375000), wk =   0.0039062
        k(   27) = (   0.0625000   0.0625000  -0.0625000), wk =   0.0078125
        k(   28) = (   0.0625000   0.1875000  -0.0625000), wk =   0.0156250
        k(   29) = (   0.0625000  -0.1875000  -0.1875000), wk =   0.0156250
        k(   30) = (   0.0625000   0.3125000  -0.0625000), wk =   0.0156250
        k(   31) = (   0.0625000  -0.3125000  -0.3125000), wk =   0.0156250
        k(   32) = (   0.0625000   0.4375000  -0.0625000), wk =   0.0156250
        k(   33) = (   0.0625000  -0.4375000  -0.4375000), wk =   0.0156250
        k(   34) = (   0.0625000   0.1875000  -0.1875000), wk =   0.0312500
        k(   35) = (   0.0625000   0.3125000  -0.1875000), wk =   0.0312500
        k(   36) = (   0.0625000  -0.4375000  -0.3125000), wk =   0.0312500
        k(   37) = (   0.0625000  -0.5625000  -0.1875000), wk =   0.0156250
        k(   38) = (   0.0625000  -0.1875000  -0.3125000), wk =   0.0312500
        k(   39) = (   0.0625000  -0.6875000  -0.3125000), wk =   0.0312500
        k(   40) = (   0.0625000  -0.3125000  -0.4375000), wk =   0.0312500
        k(   41) = (   0.0625000  -0.1875000  -0.4375000), wk =   0.0156250
        k(   42) = (   0.0625000   0.5625000   0.4375000), wk =   0.0156250
        k(   43) = (   0.0625000   0.6875000   0.4375000), wk =   0.0312500
        k(   44) = (   0.0625000  -0.1875000  -0.6875000), wk =   0.0312500
        k(   45) = (   0.1875000   0.1875000  -0.1875000), wk =   0.0078125
        k(   46) = (   0.1875000   0.3125000  -0.1875000), wk =   0.0156250
        k(   47) = (   0.1875000  -0.3125000  -0.3125000), wk =   0.0156250
        k(   48) = (   0.1875000   0.4375000  -0.1875000), wk =   0.0156250
        k(   49) = (   0.1875000  -0.4375000  -0.4375000), wk =   0.0156250
        k(   50) = (   0.1875000   0.3125000  -0.3125000), wk =   0.0312500
        k(   51) = (   0.1875000  -0.5625000  -0.3125000), wk =   0.0156250
        k(   52) = (   0.1875000   0.6875000   0.3125000), wk =   0.0156250
        k(   53) = (   0.3125000   0.3125000  -0.3125000), wk =   0.0078125
        k(   54) = (   0.3125000   0.4375000  -0.3125000), wk =   0.0156250
        k(   55) = (   0.3125000  -0.4375000  -0.4375000), wk =   0.0156250
        k(   56) = (   0.4375000   0.4375000  -0.4375000), wk =   0.0078125

     Dense  grid:    14963 G-vectors     FFT dimensions: (  36,  36,  36)

     Smooth grid:     3805 G-vectors     FFT dimensions: (  24,  24,  24)

     Dynamical RAM for                 wfc:       0.99 MB

     Dynamical RAM for     wfc (w. buffer):      14.79 MB

     Dynamical RAM for           str. fact:       0.23 MB

     Dynamical RAM for           local pot:       0.00 MB

     Dynamical RAM for          nlocal pot:       0.25 MB

     Dynamical RAM for                qrad:       4.70 MB

     Dynamical RAM for          rho,v,vnew:       7.01 MB

     Dynamical RAM for               rhoin:       2.34 MB

     Dynamical RAM for            rho*nmix:      14.61 MB

     Dynamical RAM for           G-vectors:       0.89 MB

     Dynamical RAM for          h,s,v(r/c):       0.85 MB

     Dynamical RAM for          <psi|beta>:       0.07 MB

     Dynamical RAM for                 psi:       1.97 MB

     Dynamical RAM for                hpsi:       1.97 MB

     Dynamical RAM for                spsi:       1.97 MB

     Dynamical RAM for      wfcinit/wfcrot:       1.58 MB

     Dynamical RAM for           addusdens:      35.72 MB

     Dynamical RAM for          addusforce:      35.38 MB

     Dynamical RAM for         addusstress:      36.27 MB

     Estimated static dynamical RAM per process >      33.50 MB

     Estimated max dynamical RAM per process >      84.38 MB

     Estimated total dynamical RAM >     293.67 MB

     Check: negative core charge=   -0.000085
     Generating pointlists ...
     new r_m :   0.3572 (alat units)  1.9362 (a.u.) for type    1

     Initial potential from superposition of free atoms

     starting charge      15.9996, renormalised to      16.0000

 ==============================================================================
     atom number    1 relative position :    0.0000   0.0000   0.0000
     charge :    14.480257  (integrated on a sphere of radius 0.357)
     magnetization :          0.000000    0.000000    0.905016
     magnetization/charge:    0.000000    0.000000    0.062500
     polar coord.: r, theta, phi [deg] :     0.905016    0.000000  360.000000

 ==============================================================================
     Starting wfcs are   26 randomized atomic wfcs +   42 random wfcs

     total cpu time spent up to now is        1.5 secs

     per-process dynamical memory:   202.4 Mb

     Self-consistent Calculation

     iteration #  1     ecut=    50.00 Ry     beta= 0.10
     Davidson diagonalization with overlap

---- Real-time Memory Report at c_bands before calling an iterative solver
           276 MiB given to the printing process from OS
           198 MiB allocation reported by mallinfo(arena+hblkhd)
           773 MiB available memory on the node where the printing process lives
------------------
     ethr =  1.00E-02,  avg # of iterations =  6.8

     Threshold (ethr) on eigenvalues was too large:
     Diagonalizing with lowered threshold

     Davidson diagonalization with overlap

---- Real-time Memory Report at c_bands before calling an iterative solver
           297 MiB given to the printing process from OS
           200 MiB allocation reported by mallinfo(arena+hblkhd)
           657 MiB available memory on the node where the printing process lives
------------------
     ethr =  2.83E-04,  avg # of iterations =  1.2

     total cpu time spent up to now is        4.8 secs

     total energy              =    -254.32733588 Ry
     estimated scf accuracy    <       0.04518406 Ry

     total magnetization       =    -0.00     0.00     1.52 Bohr mag/cell
     absolute magnetization    =     1.53 Bohr mag/cell

     iteration #  2     ecut=    50.00 Ry     beta= 0.10
     Davidson diagonalization with overlap

---- Real-time Memory Report at c_bands before calling an iterative solver
           300 MiB given to the printing process from OS
           202 MiB allocation reported by mallinfo(arena+hblkhd)
           622 MiB available memory on the node where the printing process lives
------------------
     ethr =  2.82E-04,  avg # of iterations =  1.0

     total cpu time spent up to now is        6.0 secs

     total energy              =    -254.32991522 Ry
     estimated scf accuracy    <       0.02812488 Ry

     total magnetization       =     0.00    -0.00     1.61 Bohr mag/cell
     absolute magnetization    =     1.61 Bohr mag/cell

     iteration #  3     ecut=    50.00 Ry     beta= 0.10
     Davidson diagonalization with overlap

---- Real-time Memory Report at c_bands before calling an iterative solver
           303 MiB given to the printing process from OS
           203 MiB allocation reported by mallinfo(arena+hblkhd)
           622 MiB available memory on the node where the printing process lives
------------------
     ethr =  1.76E-04,  avg # of iterations =  1.0

     total cpu time spent up to now is        7.1 secs

     total energy              =    -254.33697615 Ry
     estimated scf accuracy    <       0.01788134 Ry

     total magnetization       =    -0.00     0.00     1.75 Bohr mag/cell
     absolute magnetization    =     1.76 Bohr mag/cell

     iteration #  4     ecut=    50.00 Ry     beta= 0.10
     Davidson diagonalization with overlap

---- Real-time Memory Report at c_bands before calling an iterative solver
           304 MiB given to the printing process from OS
           203 MiB allocation reported by mallinfo(arena+hblkhd)
           622 MiB available memory on the node where the printing process lives
------------------
     ethr =  1.12E-04,  avg # of iterations =  1.0

     total cpu time spent up to now is        8.3 secs

     total energy              =    -254.34642526 Ry
     estimated scf accuracy    <       0.00183504 Ry

     total magnetization       =     0.00    -0.00     2.11 Bohr mag/cell
     absolute magnetization    =     2.21 Bohr mag/cell

     iteration #  5     ecut=    50.00 Ry     beta= 0.10
     Davidson diagonalization with overlap

---- Real-time Memory Report at c_bands before calling an iterative solver
           305 MiB given to the printing process from OS
           204 MiB allocation reported by mallinfo(arena+hblkhd)
           626 MiB available memory on the node where the printing process lives
------------------
     ethr =  1.15E-05,  avg # of iterations =  2.1

     total cpu time spent up to now is        9.6 secs

     total energy              =    -254.35100390 Ry
     estimated scf accuracy    <       0.00119779 Ry

     total magnetization       =    -0.00     0.00     2.17 Bohr mag/cell
     absolute magnetization    =     2.29 Bohr mag/cell

     iteration #  6     ecut=    50.00 Ry     beta= 0.10
     Davidson diagonalization with overlap

---- Real-time Memory Report at c_bands before calling an iterative solver
           305 MiB given to the printing process from OS
           204 MiB allocation reported by mallinfo(arena+hblkhd)
           623 MiB available memory on the node where the printing process lives
------------------
     ethr =  7.49E-06,  avg # of iterations =  1.0

     total cpu time spent up to now is       10.9 secs

     total energy              =    -254.35218621 Ry
     estimated scf accuracy    <       0.00079234 Ry

     total magnetization       =    -0.00    -0.00     2.15 Bohr mag/cell
     absolute magnetization    =     2.27 Bohr mag/cell

     iteration #  7     ecut=    50.00 Ry     beta= 0.10
     Davidson diagonalization with overlap

---- Real-time Memory Report at c_bands before calling an iterative solver
           305 MiB given to the printing process from OS
           205 MiB allocation reported by mallinfo(arena+hblkhd)
           626 MiB available memory on the node where the printing process lives
------------------
     ethr =  4.95E-06,  avg # of iterations =  1.3

     total cpu time spent up to now is       12.1 secs

     total energy              =    -254.35244201 Ry
     estimated scf accuracy    <       0.00032692 Ry

     total magnetization       =    -0.00    -0.00     2.16 Bohr mag/cell
     absolute magnetization    =     2.29 Bohr mag/cell

     iteration #  8     ecut=    50.00 Ry     beta= 0.10
     Davidson diagonalization with overlap

---- Real-time Memory Report at c_bands before calling an iterative solver
           306 MiB given to the printing process from OS
           205 MiB allocation reported by mallinfo(arena+hblkhd)
           629 MiB available memory on the node where the printing process lives
------------------
     ethr =  2.04E-06,  avg # of iterations =  1.2

     total cpu time spent up to now is       13.4 secs

     total energy              =    -254.35288353 Ry
     estimated scf accuracy    <       0.00008936 Ry

     total magnetization       =    -0.00    -0.00     2.17 Bohr mag/cell
     absolute magnetization    =     2.31 Bohr mag/cell

     iteration #  9     ecut=    50.00 Ry     beta= 0.10
     Davidson diagonalization with overlap

---- Real-time Memory Report at c_bands before calling an iterative solver
           306 MiB given to the printing process from OS
           206 MiB allocation reported by mallinfo(arena+hblkhd)
           629 MiB available memory on the node where the printing process lives
------------------
     ethr =  5.58E-07,  avg # of iterations =  1.0

     total cpu time spent up to now is       14.6 secs

     total energy              =    -254.35306498 Ry
     estimated scf accuracy    <       0.00000111 Ry

     total magnetization       =     0.00    -0.00     2.17 Bohr mag/cell
     absolute magnetization    =     2.32 Bohr mag/cell

     iteration # 10     ecut=    50.00 Ry     beta= 0.10
     Davidson diagonalization with overlap

---- Real-time Memory Report at c_bands before calling an iterative solver
           307 MiB given to the printing process from OS
           206 MiB allocation reported by mallinfo(arena+hblkhd)
           630 MiB available memory on the node where the printing process lives
------------------
     ethr =  6.91E-09,  avg # of iterations =  1.3

     total cpu time spent up to now is       15.9 secs

     total energy              =    -254.35317474 Ry
     estimated scf accuracy    <       0.00000012 Ry

     total magnetization       =     0.00    -0.00     2.17 Bohr mag/cell
     absolute magnetization    =     2.32 Bohr mag/cell

     iteration # 11     ecut=    50.00 Ry     beta= 0.10
     Davidson diagonalization with overlap

---- Real-time Memory Report at c_bands before calling an iterative solver
           307 MiB given to the printing process from OS
           206 MiB allocation reported by mallinfo(arena+hblkhd)
           636 MiB available memory on the node where the printing process lives
------------------
     ethr =  7.32E-10,  avg # of iterations =  2.0

     total cpu time spent up to now is       17.2 secs

     total energy              =    -254.35326851 Ry
     estimated scf accuracy    <       0.00000017 Ry

     total magnetization       =     0.00     0.00     2.17 Bohr mag/cell
     absolute magnetization    =     2.32 Bohr mag/cell

     iteration # 12     ecut=    50.00 Ry     beta= 0.10
     Davidson diagonalization with overlap

---- Real-time Memory Report at c_bands before calling an iterative solver
           307 MiB given to the printing process from OS
           206 MiB allocation reported by mallinfo(arena+hblkhd)
           647 MiB available memory on the node where the printing process lives
------------------
     ethr =  7.32E-10,  avg # of iterations =  2.0

     total cpu time spent up to now is       18.5 secs

     total energy              =    -254.35333491 Ry
     estimated scf accuracy    <       0.00000051 Ry

     total magnetization       =    -0.00     0.00     2.17 Bohr mag/cell
     absolute magnetization    =     2.32 Bohr mag/cell

     iteration # 13     ecut=    50.00 Ry     beta= 0.10
     Davidson diagonalization with overlap

---- Real-time Memory Report at c_bands before calling an iterative solver
           307 MiB given to the printing process from OS
           206 MiB allocation reported by mallinfo(arena+hblkhd)
           634 MiB available memory on the node where the printing process lives
------------------
     ethr =  7.32E-10,  avg # of iterations =  2.0

     total cpu time spent up to now is       19.8 secs

     total energy              =    -254.35339339 Ry
     estimated scf accuracy    <       0.00000001 Ry

     total magnetization       =     0.00     0.00     2.17 Bohr mag/cell
     absolute magnetization    =     2.32 Bohr mag/cell

     iteration # 14     ecut=    50.00 Ry     beta= 0.10
     Davidson diagonalization with overlap

---- Real-time Memory Report at c_bands before calling an iterative solver
           307 MiB given to the printing process from OS
           206 MiB allocation reported by mallinfo(arena+hblkhd)
           646 MiB available memory on the node where the printing process lives
------------------
     ethr =  8.32E-11,  avg # of iterations =  2.2

     total cpu time spent up to now is       21.2 secs

     total energy              =    -254.35344013 Ry
     estimated scf accuracy    <       0.00000003 Ry

     total magnetization       =     0.00     0.00     2.17 Bohr mag/cell
     absolute magnetization    =     2.32 Bohr mag/cell

     iteration # 15     ecut=    50.00 Ry     beta= 0.10
     Davidson diagonalization with overlap

---- Real-time Memory Report at c_bands before calling an iterative solver
           307 MiB given to the printing process from OS
           206 MiB allocation reported by mallinfo(arena+hblkhd)
           630 MiB available memory on the node where the printing process lives
------------------
     ethr =  8.32E-11,  avg # of iterations =  2.0

     total cpu time spent up to now is       22.6 secs

     total energy              =    -254.35347831 Ry
     estimated scf accuracy    <       0.00000003 Ry

     total magnetization       =    -0.00    -0.00     2.17 Bohr mag/cell
     absolute magnetization    =     2.32 Bohr mag/cell

     iteration # 16     ecut=    50.00 Ry     beta= 0.10
     Davidson diagonalization with overlap

---- Real-time Memory Report at c_bands before calling an iterative solver
           307 MiB given to the printing process from OS
           206 MiB allocation reported by mallinfo(arena+hblkhd)
           625 MiB available memory on the node where the printing process lives
------------------
     ethr =  8.32E-11,  avg # of iterations =  2.0

     total cpu time spent up to now is       23.9 secs

     total energy              =    -254.35350929 Ry
     estimated scf accuracy    <       0.00000003 Ry

     total magnetization       =    -0.00     0.00     2.17 Bohr mag/cell
     absolute magnetization    =     2.32 Bohr mag/cell

     iteration # 17     ecut=    50.00 Ry     beta= 0.10
     Davidson diagonalization with overlap

---- Real-time Memory Report at c_bands before calling an iterative solver
           307 MiB given to the printing process from OS
           206 MiB allocation reported by mallinfo(arena+hblkhd)
           614 MiB available memory on the node where the printing process lives
------------------
     ethr =  8.32E-11,  avg # of iterations =  2.0

     total cpu time spent up to now is       25.2 secs

     total energy              =    -254.35353495 Ry
     estimated scf accuracy    <       0.00000002 Ry

     total magnetization       =     0.00    -0.00     2.17 Bohr mag/cell
     absolute magnetization    =     2.32 Bohr mag/cell

     iteration # 18     ecut=    50.00 Ry     beta= 0.10
     Davidson diagonalization with overlap

---- Real-time Memory Report at c_bands before calling an iterative solver
           307 MiB given to the printing process from OS
           206 MiB allocation reported by mallinfo(arena+hblkhd)
           621 MiB available memory on the node where the printing process lives
------------------
     ethr =  8.32E-11,  avg # of iterations =  2.0

     total cpu time spent up to now is       26.5 secs

     total energy              =    -254.35355535 Ry
     estimated scf accuracy    <       0.00000002 Ry

     total magnetization       =     0.00    -0.00     2.17 Bohr mag/cell
     absolute magnetization    =     2.32 Bohr mag/cell

     iteration # 19     ecut=    50.00 Ry     beta= 0.10
     Davidson diagonalization with overlap

---- Real-time Memory Report at c_bands before calling an iterative solver
           307 MiB given to the printing process from OS
           206 MiB allocation reported by mallinfo(arena+hblkhd)
           621 MiB available memory on the node where the printing process lives
------------------
     ethr =  8.32E-11,  avg # of iterations =  2.0

     total cpu time spent up to now is       27.9 secs

     total energy              =    -254.35357150 Ry
     estimated scf accuracy    <       0.00000005 Ry

     total magnetization       =    -0.00     0.00     2.17 Bohr mag/cell
     absolute magnetization    =     2.32 Bohr mag/cell

     iteration # 20     ecut=    50.00 Ry     beta= 0.10
     Davidson diagonalization with overlap

---- Real-time Memory Report at c_bands before calling an iterative solver
           307 MiB given to the printing process from OS
           206 MiB allocation reported by mallinfo(arena+hblkhd)
           625 MiB available memory on the node where the printing process lives
------------------
     ethr =  8.32E-11,  avg # of iterations =  2.0

     total cpu time spent up to now is       29.2 secs

     total energy              =    -254.35358463 Ry
     estimated scf accuracy    <       0.00000004 Ry

     total magnetization       =    -0.00     0.00     2.17 Bohr mag/cell
     absolute magnetization    =     2.32 Bohr mag/cell

     iteration # 21     ecut=    50.00 Ry     beta= 0.10
     Davidson diagonalization with overlap

---- Real-time Memory Report at c_bands before calling an iterative solver
           307 MiB given to the printing process from OS
           206 MiB allocation reported by mallinfo(arena+hblkhd)
           629 MiB available memory on the node where the printing process lives
------------------
     ethr =  8.32E-11,  avg # of iterations =  1.9

     total cpu time spent up to now is       30.5 secs

     total energy              =    -254.35359522 Ry
     estimated scf accuracy    <       0.00000005 Ry

     total magnetization       =     0.00     0.00     2.17 Bohr mag/cell
     absolute magnetization    =     2.32 Bohr mag/cell

     iteration # 22     ecut=    50.00 Ry     beta= 0.10
     Davidson diagonalization with overlap

---- Real-time Memory Report at c_bands before calling an iterative solver
           307 MiB given to the printing process from OS
           206 MiB allocation reported by mallinfo(arena+hblkhd)
           636 MiB available memory on the node where the printing process lives
------------------
     ethr =  8.32E-11,  avg # of iterations =  1.9

     total cpu time spent up to now is       31.9 secs

     total energy              =    -254.35360373 Ry
     estimated scf accuracy    <       0.00000002 Ry

     total magnetization       =    -0.00    -0.00     2.17 Bohr mag/cell
     absolute magnetization    =     2.32 Bohr mag/cell

     iteration # 23     ecut=    50.00 Ry     beta= 0.10
     Davidson diagonalization with overlap

---- Real-time Memory Report at c_bands before calling an iterative solver
           307 MiB given to the printing process from OS
           206 MiB allocation reported by mallinfo(arena+hblkhd)
           625 MiB available memory on the node where the printing process lives
------------------
     ethr =  8.32E-11,  avg # of iterations =  2.0

 ==============================================================================
     atom number    1 relative position :    0.0000   0.0000   0.0000
     charge :    14.426348  (integrated on a sphere of radius 0.357)
     magnetization :          0.000000    0.000000    2.239143
     magnetization/charge:    0.000000    0.000000    0.155212
     polar coord.: r, theta, phi [deg] :     2.239143    0.000000  360.000000

 ==============================================================================

     total cpu time spent up to now is       33.2 secs

     End of self-consistent calculation

          k = 0.0000 0.0000 0.1250 (   470 PWs)   bands (ev):

   -70.6277 -67.8558 -37.1543 -36.7061 -35.9600 -34.0354 -33.5944 -33.2250
     9.4750   9.5909  15.1976  15.2564  15.3080  16.2290  16.4079  17.1075
    17.1592  17.2341  18.9762  19.2229  40.1543  40.2703  41.4361  41.4481
    41.5826  41.5989  44.6331  44.9654  46.7128  46.8755  47.3839  47.5427
    48.9908  49.2977  49.2988  49.6191  51.3579  52.1101  52.8666  52.9957
    53.6370  53.7865  66.4411  66.6934  75.1546  75.7591  80.1604  80.2624
    80.8155  80.9230  83.9729  84.4991  87.0806  87.7182  94.1335  94.9350
   100.1085 100.8739 104.0240 104.0275 104.3483 104.3510 106.9047 106.9084
   107.0866 107.1654 107.1685 107.2495

     occupation numbers 
     1.0000   1.0000   1.0000   1.0000   1.0000   1.0000   1.0000   1.0000
     1.0000   1.0000   1.0000   1.0000   1.0000   1.0000   1.0000   1.0347
     1.0331   0.9984  -0.0000  -0.0000  -0.0000  -0.0000  -0.0000  -0.0000
    -0.0000  -0.0000  -0.0000  -0.0000  -0.0000  -0.0000  -0.0000  -0.0000
    -0.0000  -0.0000  -0.0000  -0.0000  -0.0000  -0.0000  -0.0000  -0.0000
    -0.0000  -0.0000  -0.0000  -0.0000  -0.0000  -0.0000  -0.0000  -0.0000
    -0.0000  -0.0000  -0.0000  -0.0000  -0.0000  -0.0000  -0.0000  -0.0000
    -0.0000  -0.0000  -0.0000  -0.0000  -0.0000  -0.0000  -0.0000  -0.0000
    -0.0000  -0.0000  -0.0000  -0.0000

          k = 0.0000-0.1250 0.2500 (   477 PWs)   bands (ev):

   -70.6101 -67.8364 -37.1945 -36.7585 -35.9986 -34.0823 -33.6574 -33.2655
    10.6476  10.7896  14.9684  15.1452  15.8935  16.0208  16.4991  16.8213
    17.0168  17.8881  18.6229  19.3269  35.8337  36.2276  39.1854  39.2741
    40.0215  40.3329  44.0200  44.1943  44.3800  44.6886  45.7137  46.0535
    51.7795  52.1587  52.3455  52.4651  55.3333  55.9323  57.4725  58.1391
    58.1933  58.5607  66.0219  66.5384  72.1196  72.5925  77.0416  77.6650
    81.5826  82.2932  86.0778  86.6774  91.0086  91.6992  91.8541  92.1124
    96.0558  96.0755  96.3460  96.4320  98.7808  99.2871 100.7104 101.1771
   102.1174 102.5131 105.5291 105.7958

     occupation numbers 
     1.0000   1.0000   1.0000   1.0000   1.0000   1.0000   1.0000   1.0000
     1.0000   1.0000   1.0000   1.0000   1.0000   1.0000   1.0000   1.0022
     1.0215  -0.0245  -0.0000  -0.0000  -0.0000  -0.0000  -0.0000  -0.0000
    -0.0000  -0.0000  -0.0000  -0.0000  -0.0000  -0.0000  -0.0000  -0.0000
    -0.0000  -0.0000  -0.0000  -0.0000  -0.0000  -0.0000  -0.0000  -0.0000
    -0.0000  -0.0000  -0.0000  -0.0000  -0.0000  -0.0000  -0.0000  -0.0000
    -0.0000  -0.0000  -0.0000  -0.0000  -0.0000  -0.0000  -0.0000  -0.0000
    -0.0000  -0.0000  -0.0000  -0.0000  -0.0000  -0.0000  -0.0000  -0.0000
    -0.0000  -0.0000  -0.0000  -0.0000

          k = 0.0000-0.2500 0.3750 (   480 PWs)   bands (ev):

   -70.5848 -67.8086 -37.2615 -36.8214 -36.0517 -34.1608 -33.7362 -33.3149
    12.2871  12.7239  14.5869  15.1643  16.2187  16.3616  16.6654  16.7669
    16.8912  18.6656  18.9838  19.4413  30.1175  30.8822  36.8324  36.9202
    37.9266  38.4798  42.3139  42.7278  44.1408  44.6398  47.0261  47.2497
    54.0251  54.1601  57.0050  57.2100  60.1406  60.6434  62.0714  62.6342
    62.7978  63.4505  65.3231  65.5971  70.5718  71.1248  79.2719  79.7300
    81.6707  81.8969  83.7506  84.5031  84.5620  85.0652  86.9753  87.1790
    87.6599  88.2978  94.0616  94.1167  95.2604  95.8771 101.3195 102.0117
   102.2458 102.7735 103.1628 103.3606

     occupation numbers 
     1.0000   1.0000   1.0000   1.0000   1.0000   1.0000   1.0000   1.0000
     1.0000   1.0000   1.0000   1.0000   1.0000   1.0000   1.0001   1.0009
     1.0058  -0.0000  -0.0000  -0.0000  -0.0000  -0.0000  -0.0000  -0.0000
    -0.0000  -0.0000  -0.0000  -0.0000  -0.0000  -0.0000  -0.0000  -0.0000
    -0.0000  -0.0000  -0.0000  -0.0000  -0.0000  -0.0000  -0.0000  -0.0000
    -0.0000  -0.0000  -0.0000  -0.0000  -0.0000  -0.0000  -0.0000  -0.0000
    -0.0000  -0.0000  -0.0000  -0.0000  -0.0000  -0.0000  -0.0000  -0.0000
    -0.0000  -0.0000  -0.0000  -0.0000  -0.0000  -0.0000  -0.0000  -0.0000
    -0.0000  -0.0000  -0.0000  -0.0000

          k = 0.0000-0.3750 0.5000 (   475 PWs)   bands (ev):

   -70.5666 -67.7886 -37.3156 -36.8581 -36.0878 -34.2248 -33.7839 -33.3450
    12.7789  13.9542  14.3278  15.8972  16.0428  16.3823  17.3143  17.6671
    18.0357  18.8731  19.7915  19.8822  25.4117  26.6021  35.4998  35.5485
    36.3663  36.8969  41.5955  42.0450  44.3476  44.9368  48.7062  48.8061
    55.0579  55.4541  58.3417  58.6545  63.6061  63.7687  64.9238  65.5467
    68.0102  68.3668  68.6317  68.8918  73.3227  73.3744  75.1996  75.4482
    76.5200  77.0032  77.7614  78.2726  83.4200  83.7430  85.2674  85.3047
    88.1985  88.8446  91.1092  91.7433  91.8710  92.5115  96.7733  97.4879
   101.2796 101.4000 104.1746 104.4711

     occupation numbers 
     1.0000   1.0000   1.0000   1.0000   1.0000   1.0000   1.0000   1.0000
     1.0000   1.0000   1.0000   1.0000   1.0000   1.0000   0.8911   0.0218
    -0.0055  -0.0000  -0.0000  -0.0000  -0.0000  -0.0000  -0.0000  -0.0000
    -0.0000  -0.0000  -0.0000  -0.0000  -0.0000  -0.0000  -0.0000  -0.0000
    -0.0000  -0.0000  -0.0000  -0.0000  -0.0000  -0.0000  -0.0000  -0.0000
    -0.0000  -0.0000  -0.0000  -0.0000  -0.0000  -0.0000  -0.0000  -0.0000
    -0.0000  -0.0000  -0.0000  -0.0000  -0.0000  -0.0000  -0.0000  -0.0000
    -0.0000  -0.0000  -0.0000  -0.0000  -0.0000  -0.0000  -0.0000  -0.0000
    -0.0000  -0.0000  -0.0000  -0.0000

          k =-0.1250 0.1250 0.1250 (   480 PWs)   bands (ev):

   -70.6190 -67.8461 -37.1811 -36.7230 -35.9863 -34.0661 -33.6139 -33.2528
    10.0812  10.2047  15.0202  15.0361  15.8016  16.2860  16.3092  16.8921
    16.9099  17.7661  19.0501  19.0648  38.3431  38.3683  38.5091  38.5326
    42.1141  42.5308  42.8554  42.8972  47.7251  47.7772  47.9665  48.0043
    48.6574  48.6654  49.2305  49.2441  53.9475  54.5839  55.9235  55.9813
    56.5172  56.5830  67.8101  68.1607  74.7079  74.7561  75.2911  75.3407
    78.1495  78.8673  89.3674  89.3779  89.9953  90.0072  96.7157  96.8901
    96.8911  97.0541  97.0550  97.5078  97.9060  98.7842 103.0237 103.3077
   105.5602 105.5607 105.7707 105.7709

     occupation numbers 
     1.0000   1.0000   1.0000   1.0000   1.0000   1.0000   1.0000   1.0000
     1.0000   1.0000   1.0000   1.0000   1.0000   1.0000   1.0000   1.0059
     1.0073  -0.0335  -0.0000  -0.0000  -0.0000  -0.0000  -0.0000  -0.0000
    -0.0000  -0.0000  -0.0000  -0.0000  -0.0000  -0.0000  -0.0000  -0.0000
    -0.0000  -0.0000  -0.0000  -0.0000  -0.0000  -0.0000  -0.0000  -0.0000
    -0.0000  -0.0000  -0.0000  -0.0000  -0.0000  -0.0000  -0.0000  -0.0000
    -0.0000  -0.0000  -0.0000  -0.0000  -0.0000  -0.0000  -0.0000  -0.0000
    -0.0000  -0.0000  -0.0000  -0.0000  -0.0000  -0.0000  -0.0000  -0.0000
    -0.0000  -0.0000  -0.0000  -0.0000

          k =-0.1250-0.1250 0.3750 (   476 PWs)   bands (ev):

   -70.5888 -67.8130 -37.2429 -36.8163 -36.0425 -34.1391 -33.7274 -33.3105
    12.0868  12.3610  14.7369  14.9554  15.9062  16.5700  16.6079  16.7240
    16.9107  18.3339  18.7279  19.5478  33.0862  33.6690  34.0274  34.5453
    40.4520  40.6601  40.7597  41.1879  44.3382  44.6807  49.0273  49.2891
    52.0800  52.5347  56.8274  56.9726  57.8332  58.1241  60.1901  60.9014
    62.6195  63.1698  65.0433  65.4162  74.4533  74.9114  77.1579  77.6966
    80.7202  81.4610  83.2078  83.4721  87.0202  87.6302  90.9913  91.5749
    91.8276  91.9342  94.1680  94.4714  95.0159  95.7593  96.6406  96.9632
   102.9808 103.3822 103.9090 103.9943

     occupation numbers 
     1.0000   1.0000   1.0000   1.0000   1.0000   1.0000   1.0000   1.0000
     1.0000   1.0000   1.0000   1.0000   1.0000   1.0000   1.0000   1.0004
     1.0074  -0.0000  -0.0000  -0.0000  -0.0000  -0.0000  -0.0000  -0.0000
    -0.0000  -0.0000  -0.0000  -0.0000  -0.0000  -0.0000  -0.0000  -0.0000
    -0.0000  -0.0000  -0.0000  -0.0000  -0.0000  -0.0000  -0.0000  -0.0000
    -0.0000  -0.0000  -0.0000  -0.0000  -0.0000  -0.0000  -0.0000  -0.0000
    -0.0000  -0.0000  -0.0000  -0.0000  -0.0000  -0.0000  -0.0000  -0.0000
    -0.0000  -0.0000  -0.0000  -0.0000  -0.0000  -0.0000  -0.0000  -0.0000
    -0.0000  -0.0000  -0.0000  -0.0000

          k =-0.1250-0.2500 0.5000 (   472 PWs)   bands (ev):

   -70.5674 -67.7895 -37.3000 -36.8621 -36.0894 -34.2054 -33.7849 -33.3552
    13.1670  14.0834  14.4471  14.9897  16.1575  16.2240  16.5597  16.9554
    18.5662  18.6065  19.4091  20.4738  27.9720  28.8533  31.8450  32.4135
    38.3756  38.6714  41.4138  41.7739  44.9716  45.2604  49.4535  49.8430
    54.4179  54.9325  57.2481  57.5822  60.5299  60.7501  65.4404  66.0525
    66.3562  66.6071  70.2528  70.6716  73.3448  73.6055  74.7436  75.1880
    78.8364  79.1709  80.5721  81.2797  82.7240  82.9112  86.8775  87.5640
    88.1272  88.7271  92.3379  92.6099  93.7214  93.9817  98.1818  98.3797
    99.4711 100.1477 103.5085 103.7828

     occupation numbers 
     1.0000   1.0000   1.0000   1.0000   1.0000   1.0000   1.0000   1.0000
     1.0000   1.0000   1.0000   1.0000   1.0000   1.0000   1.0000   1.0123
    -0.0000  -0.0000  -0.0000  -0.0000  -0.0000  -0.0000  -0.0000  -0.0000
    -0.0000  -0.0000  -0.0000  -0.0000  -0.0000  -0.0000  -0.0000  -0.0000
    -0.0000  -0.0000  -0.0000  -0.0000  -0.0000  -0.0000  -0.0000  -0.0000
    -0.0000  -0.0000  -0.0000  -0.0000  -0.0000  -0.0000  -0.0000  -0.0000
    -0.0000  -0.0000  -0.0000  -0.0000  -0.0000  -0.0000  -0.0000  -0.0000
    -0.0000  -0.0000  -0.0000  -0.0000  -0.0000  -0.0000  -0.0000  -0.0000
    -0.0000  -0.0000  -0.0000  -0.0000

          k =-0.1250 0.6250-0.3750 (   477 PWs)   bands (ev):

   -70.5588 -67.7800 -37.3297 -36.8712 -36.1143 -34.2394 -33.7972 -33.3781
    13.2182  14.4547  14.5887  15.1358  16.1521  16.3053  16.6574  17.3152
    18.7275  19.6231  20.5772  21.8328  24.6159  25.8736  31.1587  31.7166
    37.5430  37.8076  41.7141  42.1546  45.9556  46.0640  48.7585  49.2446
    52.9108  53.6019  62.0957  62.1326  64.0291  64.3389  64.5742  64.9774
    67.3613  67.8932  72.2632  72.9926  73.2437  73.4440  74.3093  74.6921
    75.2996  75.4116  79.5101  80.1647  83.4237  83.6387  84.7434  84.9724
    85.8556  86.5869  91.2133  91.4557  93.3765  93.8045  97.4356  98.1086
    99.3446  99.8671 101.6742 101.9157

     occupation numbers 
     1.0000   1.0000   1.0000   1.0000   1.0000   1.0000   1.0000   1.0000
     1.0000   1.0000   1.0000   1.0000   1.0000   1.0000   1.0001   0.8894
    -0.0000  -0.0000  -0.0000  -0.0000  -0.0000  -0.0000  -0.0000  -0.0000
    -0.0000  -0.0000  -0.0000  -0.0000  -0.0000  -0.0000  -0.0000  -0.0000
    -0.0000  -0.0000  -0.0000  -0.0000  -0.0000  -0.0000  -0.0000  -0.0000
    -0.0000  -0.0000  -0.0000  -0.0000  -0.0000  -0.0000  -0.0000  -0.0000
    -0.0000  -0.0000  -0.0000  -0.0000  -0.0000  -0.0000  -0.0000  -0.0000
    -0.0000  -0.0000  -0.0000  -0.0000  -0.0000  -0.0000  -0.0000  -0.0000
    -0.0000  -0.0000  -0.0000  -0.0000

          k =-0.2500 0.2500 0.1250 (   474 PWs)   bands (ev):

   -70.5966 -67.8216 -37.2444 -36.7630 -36.0432 -34.1421 -33.6589 -33.3123
    11.6587  11.8673  14.6352  14.8245  16.2298  16.4058  16.4472  16.5788
    16.7970  18.7919  18.8999  19.2134  33.0026  33.5647  36.0647  36.3327
    38.3357  39.0163  43.0382  43.1334  47.1131  47.6633  48.3674  48.5344
    50.9090  51.1738  52.9881  53.4160  56.7012  57.1201  61.2539  61.7834
    62.7992  63.2104  68.3379  68.5082  68.8650  69.1189  74.9858  75.4799
    79.8382  80.5728  84.7443  84.9871  86.1902  86.6058  91.8850  92.5622
    93.0181  93.3378  94.5933  95.2060  99.8125 100.3447 101.9114 102.0458
   103.8291 104.0027 104.0517 104.5423

     occupation numbers 
     1.0000   1.0000   1.0000   1.0000   1.0000   1.0000   1.0000   1.0000
     1.0000   1.0000   1.0000   1.0000   1.0000   1.0000   1.0000   1.0000
     1.0015  -0.0000  -0.0000  -0.0000  -0.0000  -0.0000  -0.0000  -0.0000
    -0.0000  -0.0000  -0.0000  -0.0000  -0.0000  -0.0000  -0.0000  -0.0000
    -0.0000  -0.0000  -0.0000  -0.0000  -0.0000  -0.0000  -0.0000  -0.0000
    -0.0000  -0.0000  -0.0000  -0.0000  -0.0000  -0.0000  -0.0000  -0.0000
    -0.0000  -0.0000  -0.0000  -0.0000  -0.0000  -0.0000  -0.0000  -0.0000
    -0.0000  -0.0000  -0.0000  -0.0000  -0.0000  -0.0000  -0.0000  -0.0000
    -0.0000  -0.0000  -0.0000  -0.0000

          k =-0.2500 0.7500-0.3750 (   476 PWs)   bands (ev):

   -70.5555 -67.7764 -37.3300 -36.8812 -36.1256 -34.2384 -33.8079 -33.3947
    13.8987  14.1356  14.6677  15.2774  15.8015  16.2732  16.5052  16.9398
    18.8524  19.3241  21.7754  23.0721  26.1149  27.0780  27.3364  28.1220
    38.7334  39.1468  41.8258  42.0295  43.9632  44.1755  50.9941  51.7486
    56.2042  56.5107  56.8980  57.2649  64.1808  64.4826  65.7712  65.9130
    67.9456  68.3586  72.0520  72.1845  72.9988  73.2116  75.6441  76.2731
    76.4551  77.0122  81.2136  81.2610  81.4761  81.8754  83.8082  84.0552
    85.2643  85.5978  92.6989  92.8975  95.2556  95.7463  95.9264  96.1914
    99.0693  99.6192 102.9992 103.4437

     occupation numbers 
     1.0000   1.0000   1.0000   1.0000   1.0000   1.0000   1.0000   1.0000
     1.0000   1.0000   1.0000   1.0000   1.0000   1.0000   1.0000   1.0104
    -0.0000  -0.0000  -0.0000  -0.0000  -0.0000  -0.0000  -0.0000  -0.0000
    -0.0000  -0.0000  -0.0000  -0.0000  -0.0000  -0.0000  -0.0000  -0.0000
    -0.0000  -0.0000  -0.0000  -0.0000  -0.0000  -0.0000  -0.0000  -0.0000
    -0.0000  -0.0000  -0.0000  -0.0000  -0.0000  -0.0000  -0.0000  -0.0000
    -0.0000  -0.0000  -0.0000  -0.0000  -0.0000  -0.0000  -0.0000  -0.0000
    -0.0000  -0.0000  -0.0000  -0.0000  -0.0000  -0.0000  -0.0000  -0.0000
    -0.0000  -0.0000  -0.0000  -0.0000

          k =-0.3750 0.3750 0.1250 (   476 PWs)   bands (ev):

   -70.5746 -67.7973 -37.3108 -36.8041 -36.0960 -34.2243 -33.7035 -33.3652
    12.8305  13.6739  14.2989  15.5514  15.9954  16.3961  16.5179  16.6915
    18.1554  18.9848  19.3507  20.0470  27.5918  28.5122  34.4017  34.6459
    36.0542  36.6529  42.5788  42.7248  46.3874  46.9505  51.6047  51.6436
    51.7157  51.7911  58.9908  59.3056  61.1495  61.6269  61.9515  62.4581
    65.6782  66.4200  67.9081  68.3384  72.0445  72.3412  75.4316  75.6421
    77.2908  77.4551  78.9169  79.7343  83.9989  84.3206  85.6250  86.2686
    88.3122  88.9398  91.1248  91.4675  97.7956  98.0342 100.5393 101.1229
   102.8237 103.0230 106.5565 106.7931

     occupation numbers 
     1.0000   1.0000   1.0000   1.0000   1.0000   1.0000   1.0000   1.0000
     1.0000   1.0000   1.0000   1.0000   1.0000   1.0000   1.0000   1.0002
    -0.0009  -0.0000  -0.0000  -0.0000  -0.0000  -0.0000  -0.0000  -0.0000
    -0.0000  -0.0000  -0.0000  -0.0000  -0.0000  -0.0000  -0.0000  -0.0000
    -0.0000  -0.0000  -0.0000  -0.0000  -0.0000  -0.0000  -0.0000  -0.0000
    -0.0000  -0.0000  -0.0000  -0.0000  -0.0000  -0.0000  -0.0000  -0.0000
    -0.0000  -0.0000  -0.0000  -0.0000  -0.0000  -0.0000  -0.0000  -0.0000
    -0.0000  -0.0000  -0.0000  -0.0000  -0.0000  -0.0000  -0.0000  -0.0000
    -0.0000  -0.0000  -0.0000  -0.0000

          k =-0.3750 0.2500 0.2500 (   481 PWs)   bands (ev):

   -70.5780 -67.8011 -37.2913 -36.8134 -36.0843 -34.1972 -33.7206 -33.3531
    13.1403  13.6437  14.3509  14.5492  16.0336  16.1215  16.3428  16.5481
    18.3505  18.9766  19.3374  20.2365  30.5576  31.2092  31.3032  31.8887
    35.1405  35.6748  44.9396  45.0276  48.5653  48.8149  50.9878  51.2572
    53.2089  53.6495  55.1036  55.4676  57.2039  57.5972  63.2471  63.8486
    68.3446  68.4905  68.7122  68.9228  71.0545  71.6925  72.8037  73.1505
    75.7432  76.1016  78.6903  79.0627  82.8488  83.6101  88.4136  89.1401
    91.7628  92.0561  94.9644  95.1860  98.3989  98.8818 100.5020 100.9565
   104.2424 104.2842 104.6539 104.8782

     occupation numbers 
     1.0000   1.0000   1.0000   1.0000   1.0000   1.0000   1.0000   1.0000
     1.0000   1.0000   1.0000   1.0000   1.0000   1.0000   1.0000   1.0000
    -0.0000  -0.0000  -0.0000  -0.0000  -0.0000  -0.0000  -0.0000  -0.0000
    -0.0000  -0.0000  -0.0000  -0.0000  -0.0000  -0.0000  -0.0000  -0.0000
    -0.0000  -0.0000  -0.0000  -0.0000  -0.0000  -0.0000  -0.0000  -0.0000
    -0.0000  -0.0000  -0.0000  -0.0000  -0.0000  -0.0000  -0.0000  -0.0000
    -0.0000  -0.0000  -0.0000  -0.0000  -0.0000  -0.0000  -0.0000  -0.0000
    -0.0000  -0.0000  -0.0000  -0.0000  -0.0000  -0.0000  -0.0000  -0.0000
    -0.0000  -0.0000  -0.0000  -0.0000

          k = 0.5000-0.5000 0.1250 (   480 PWs)   bands (ev):

   -70.5655 -67.7873 -37.3388 -36.8219 -36.1165 -34.2594 -33.7226 -33.3851
    12.9045  14.1670  14.1759  15.8396  16.4487  16.5473  16.5572  17.4408
    19.0521  19.4043  19.5247  20.8916  24.5066  25.8297  33.7863  34.0053
    35.1877  35.7422  42.3404  42.5588  46.2573  46.8515  51.5376  51.5487
    55.3723  55.4166  57.4896  58.0832  62.4188  63.1660  65.5340  65.8445
    66.9794  67.1760  68.7234  69.4887  72.1276  72.3040  75.7485  75.7824
    75.9772  76.2936  77.7416  78.2850  82.2790  82.4173  82.5623  82.5690
    85.8620  86.6111  92.3572  92.8181  95.6523  96.3845  98.7026  99.1820
   102.4374 102.6351 104.9758 105.1404

     occupation numbers 
     1.0000   1.0000   1.0000   1.0000   1.0000   1.0000   1.0000   1.0000
     1.0000   1.0000   1.0000   1.0000   1.0000   1.0000   1.0000   0.5632
    -0.0000  -0.0000  -0.0000  -0.0000  -0.0000  -0.0000  -0.0000  -0.0000
    -0.0000  -0.0000  -0.0000  -0.0000  -0.0000  -0.0000  -0.0000  -0.0000
    -0.0000  -0.0000  -0.0000  -0.0000  -0.0000  -0.0000  -0.0000  -0.0000
    -0.0000  -0.0000  -0.0000  -0.0000  -0.0000  -0.0000  -0.0000  -0.0000
    -0.0000  -0.0000  -0.0000  -0.0000  -0.0000  -0.0000  -0.0000  -0.0000
    -0.0000  -0.0000  -0.0000  -0.0000  -0.0000  -0.0000  -0.0000  -0.0000
    -0.0000  -0.0000  -0.0000  -0.0000

          k = 0.5000-0.6250 0.2500 (   482 PWs)   bands (ev):

   -70.5647 -67.7864 -37.3264 -36.8393 -36.1208 -34.2397 -33.7472 -33.3945
    13.5195  14.1985  14.7734  15.1508  15.7968  16.3602  16.4748  16.6483
    19.1091  19.4057  20.7436  22.1261  25.9403  26.9359  29.7586  30.3724
    33.8966  34.3886  45.3527  45.4020  49.6131  49.7057  51.5390  51.9407
    56.0424  56.2293  58.6677  59.0496  59.7394  60.2695  62.8611  63.2405
    66.6056  67.0583  67.4846  67.8216  71.2444  71.7317  73.5424  74.3022
    75.8079  76.2081  79.8158  80.2762  81.5706  82.1581  84.0598  84.3259
    90.5483  90.7535  92.2382  92.6642  94.1757  94.5512 101.3069 101.6056
   102.1388 102.6603 105.8815 106.1717

     occupation numbers 
     1.0000   1.0000   1.0000   1.0000   1.0000   1.0000   1.0000   1.0000
     1.0000   1.0000   1.0000   1.0000   1.0000   1.0000   1.0000   1.0001
    -0.0000  -0.0000  -0.0000  -0.0000  -0.0000  -0.0000  -0.0000  -0.0000
    -0.0000  -0.0000  -0.0000  -0.0000  -0.0000  -0.0000  -0.0000  -0.0000
    -0.0000  -0.0000  -0.0000  -0.0000  -0.0000  -0.0000  -0.0000  -0.0000
    -0.0000  -0.0000  -0.0000  -0.0000  -0.0000  -0.0000  -0.0000  -0.0000
    -0.0000  -0.0000  -0.0000  -0.0000  -0.0000  -0.0000  -0.0000  -0.0000
    -0.0000  -0.0000  -0.0000  -0.0000  -0.0000  -0.0000  -0.0000  -0.0000
    -0.0000  -0.0000  -0.0000  -0.0000

          k = 0.3750-0.6250 0.3750 (   481 PWs)   bands (ev):

   -70.5605 -67.7817 -37.3245 -36.8639 -36.1281 -34.2327 -33.7829 -33.4027
    13.8508  14.5136  14.5478  15.3301  15.9216  15.9363  16.5840  16.6228
    19.2693  19.3042  24.1989  24.2203  25.2059  25.2095  26.5151  27.3840
    33.4255  33.9357  47.7523  47.7634  47.7858  47.7965  54.7543  55.3337
    58.5729  58.5962  58.7617  58.7861  59.7197  60.2714  62.9902  63.2651
    64.2752  64.2841  64.8288  64.8382  71.4467  71.5272  72.3166  72.3978
    76.1802  76.9823  83.1496  83.1543  83.4936  83.4984  86.4198  86.4498
    87.0992  87.3803  92.4252  92.4369  92.5600  92.5723  99.9492 100.0249
   100.6383 100.7119 103.6688 104.5046

     occupation numbers 
     1.0000   1.0000   1.0000   1.0000   1.0000   1.0000   1.0000   1.0000
     1.0000   1.0000   1.0000   1.0000   1.0000   1.0000   1.0000   1.0001
    -0.0000  -0.0000  -0.0000  -0.0000  -0.0000  -0.0000  -0.0000  -0.0000
    -0.0000  -0.0000  -0.0000  -0.0000  -0.0000  -0.0000  -0.0000  -0.0000
    -0.0000  -0.0000  -0.0000  -0.0000  -0.0000  -0.0000  -0.0000  -0.0000
    -0.0000  -0.0000  -0.0000  -0.0000  -0.0000  -0.0000  -0.0000  -0.0000
    -0.0000  -0.0000  -0.0000  -0.0000  -0.0000  -0.0000  -0.0000  -0.0000
    -0.0000  -0.0000  -0.0000  -0.0000  -0.0000  -0.0000  -0.0000  -0.0000
    -0.0000  -0.0000  -0.0000  -0.0000

          k = 0.0000 0.0000 0.3750 (   474 PWs)   bands (ev):

   -70.5933 -67.8179 -37.2225 -36.8120 -36.0314 -34.1153 -33.7190 -33.3042
    11.6782  11.8872  15.2441  15.3439  15.4050  15.9254  16.8392  17.2093
    17.2560  17.6801  17.9278  19.6269  35.9538  36.3085  36.8750  37.0022
    37.4074  37.5288  38.8307  39.1585  48.1658  48.2819  48.3728  48.4896
    49.8446  50.3750  54.8153  55.3655  59.1601  59.2815  59.8612  60.4387
    61.5353  61.6082  62.1360  62.2140  75.1884  75.6071  82.7946  82.8754
    83.5684  83.6557  84.7544  85.1963  87.2177  87.5215  89.8923  90.6920
    91.2882  91.3078  91.4955  91.5144  98.8543  99.1757 100.1937 100.2010
   100.4223 100.4282 101.7174 101.8639

     occupation numbers 
     1.0000   1.0000   1.0000   1.0000   1.0000   1.0000   1.0000   1.0000
     1.0000   1.0000   1.0000   1.0000   1.0000   1.0000   1.0029   1.0156
     0.9773   0.0088  -0.0179  -0.0000  -0.0000  -0.0000  -0.0000  -0.0000
    -0.0000  -0.0000  -0.0000  -0.0000  -0.0000  -0.0000  -0.0000  -0.0000
    -0.0000  -0.0000  -0.0000  -0.0000  -0.0000  -0.0000  -0.0000  -0.0000
    -0.0000  -0.0000  -0.0000  -0.0000  -0.0000  -0.0000  -0.0000  -0.0000
    -0.0000  -0.0000  -0.0000  -0.0000  -0.0000  -0.0000  -0.0000  -0.0000
    -0.0000  -0.0000  -0.0000  -0.0000  -0.0000  -0.0000  -0.0000  -0.0000
    -0.0000  -0.0000  -0.0000  -0.0000

          k = 0.0000-0.1250 0.5000 (   470 PWs)   bands (ev):

   -70.5695 -67.7919 -37.2782 -36.8661 -36.0835 -34.1799 -33.7841 -33.3582
    12.9916  13.5955  14.5201  15.2398  15.8646  16.5512  16.7710  17.0613
    17.6827  17.9259  18.8550  20.0233  30.9775  31.6985  34.3915  34.9656
    35.4971  35.9184  39.4285  39.8007  47.1834  47.5625  48.9230  49.2525
    53.3749  53.9413  54.6641  54.9576  59.6618  60.1219  63.1361  63.2915
    66.7298  67.2745  68.5979  68.8723  77.4729  77.9069  78.8136  79.0572
    81.3060  81.8867  83.1794  83.5555  84.5940  85.4813  88.4538  88.6589
    89.0411  89.5432  91.3992  91.5176  93.0431  93.6871  96.5088  96.6161
    98.0183  98.3624 101.0245 101.5099

     occupation numbers 
     1.0000   1.0000   1.0000   1.0000   1.0000   1.0000   1.0000   1.0000
     1.0000   1.0000   1.0000   1.0000   1.0000   1.0000   1.0010   1.0290
     0.0064  -0.0182  -0.0000  -0.0000  -0.0000  -0.0000  -0.0000  -0.0000
    -0.0000  -0.0000  -0.0000  -0.0000  -0.0000  -0.0000  -0.0000  -0.0000
    -0.0000  -0.0000  -0.0000  -0.0000  -0.0000  -0.0000  -0.0000  -0.0000
    -0.0000  -0.0000  -0.0000  -0.0000  -0.0000  -0.0000  -0.0000  -0.0000
    -0.0000  -0.0000  -0.0000  -0.0000  -0.0000  -0.0000  -0.0000  -0.0000
    -0.0000  -0.0000  -0.0000  -0.0000  -0.0000  -0.0000  -0.0000  -0.0000
    -0.0000  -0.0000  -0.0000  -0.0000

          k = 0.0000-0.2500 0.6250 (   474 PWs)   bands (ev):

   -70.5529 -67.7737 -37.3291 -36.8904 -36.1246 -34.2384 -33.8154 -33.3963
    13.3053  14.4485  14.6975  15.0500  16.0496  16.1555  16.8361  17.5897
    18.2586  19.7878  20.1431  21.5338  25.9367  26.9803  32.8040  33.3338
    34.6675  35.1131  41.8864  42.1663  46.2480  46.6490  46.9689  47.5256
    50.8980  51.4576  61.2784  61.5475  65.8936  66.0152  66.1399  66.6011
    68.6004  68.9425  72.1912  72.5249  74.3752  74.5883  74.8527  74.9273
    79.2281  79.5607  81.3159  81.8266  84.7647  85.0277  86.0146  86.4893
    88.8860  88.9460  90.3253  90.6269  91.3045  92.0780  93.9198  94.1298
    97.1122  97.5688  98.3446  98.9165

     occupation numbers 
     1.0000   1.0000   1.0000   1.0000   1.0000   1.0000   1.0000   1.0000
     1.0000   1.0000   1.0000   1.0000   1.0000   1.0000   1.0027   0.1454
    -0.0001  -0.0000  -0.0000  -0.0000  -0.0000  -0.0000  -0.0000  -0.0000
    -0.0000  -0.0000  -0.0000  -0.0000  -0.0000  -0.0000  -0.0000  -0.0000
    -0.0000  -0.0000  -0.0000  -0.0000  -0.0000  -0.0000  -0.0000  -0.0000
    -0.0000  -0.0000  -0.0000  -0.0000  -0.0000  -0.0000  -0.0000  -0.0000
    -0.0000  -0.0000  -0.0000  -0.0000  -0.0000  -0.0000  -0.0000  -0.0000
    -0.0000  -0.0000  -0.0000  -0.0000  -0.0000  -0.0000  -0.0000  -0.0000
    -0.0000  -0.0000  -0.0000  -0.0000

          k =-0.1250-0.1250 0.6250 (   474 PWs)   bands (ev):

   -70.5506 -67.7711 -37.3251 -36.9005 -36.1311 -34.2329 -33.8243 -33.4089
    13.6021  13.9189  14.8238  15.3103  15.8493  16.2562  17.1164  17.1889
    18.2987  19.3576  20.0131  21.5440  28.8829  29.4506  29.7075  30.1021
    36.9067  37.3671  38.4233  38.8137  45.9404  46.3894  48.7569  49.3965
    54.3892  54.6821  55.4485  55.7966  64.1517  64.5635  68.3896  68.5770
    69.4157  69.8597  72.4690  72.6279  75.7752  76.1435  79.3596  79.5314
    79.7521  80.0515  80.6994  80.9528  82.0849  82.6549  85.3528  85.4739
    89.0097  89.7720  91.2373  91.5196  93.6736  94.0632  94.6413  95.0092
    97.9896  98.3908  98.9225  98.9305

     occupation numbers 
     1.0000   1.0000   1.0000   1.0000   1.0000   1.0000   1.0000   1.0000
     1.0000   1.0000   1.0000   1.0000   1.0000   1.0000   1.0352   1.0252
    -0.0001  -0.0000  -0.0000  -0.0000  -0.0000  -0.0000  -0.0000  -0.0000
    -0.0000  -0.0000  -0.0000  -0.0000  -0.0000  -0.0000  -0.0000  -0.0000
    -0.0000  -0.0000  -0.0000  -0.0000  -0.0000  -0.0000  -0.0000  -0.0000
    -0.0000  -0.0000  -0.0000  -0.0000  -0.0000  -0.0000  -0.0000  -0.0000
    -0.0000  -0.0000  -0.0000  -0.0000  -0.0000  -0.0000  -0.0000  -0.0000
    -0.0000  -0.0000  -0.0000  -0.0000  -0.0000  -0.0000  -0.0000  -0.0000
    -0.0000  -0.0000  -0.0000  -0.0000

          k =-0.1250 0.7500-0.2500 (   472 PWs)   bands (ev):

   -70.5426 -67.7623 -37.3520 -36.9001 -36.1580 -34.2631 -33.8237 -33.4365
    13.5676  13.9241  15.1223  15.2811  15.6376  16.5491  16.8725  17.3997
    18.6554  19.5891  22.9883  24.0204  25.1077  26.1420  28.4967  29.1804
    36.9230  37.3663  40.0267  40.3341  43.5088  44.1465  47.7285  48.3176
    54.7560  55.1024  61.3792  61.6737  62.7990  63.1433  70.1328  70.7154
    71.2876  71.6836  72.7539  72.9023  75.0255  75.3918  78.0304  78.1412
    78.9026  79.6421  80.3011  80.4224  81.5359  82.2741  86.3229  86.5009
    87.9874  88.6508  89.7496  89.8661  91.3112  91.5627  95.6046  95.8282
    99.2426  99.3665  99.6305  99.7462

     occupation numbers 
     1.0000   1.0000   1.0000   1.0000   1.0000   1.0000   1.0000   1.0000
     1.0000   1.0000   1.0000   1.0000   1.0000   1.0000   1.0046   0.6858
    -0.0000  -0.0000  -0.0000  -0.0000  -0.0000  -0.0000  -0.0000  -0.0000
    -0.0000  -0.0000  -0.0000  -0.0000  -0.0000  -0.0000  -0.0000  -0.0000
    -0.0000  -0.0000  -0.0000  -0.0000  -0.0000  -0.0000  -0.0000  -0.0000
    -0.0000  -0.0000  -0.0000  -0.0000  -0.0000  -0.0000  -0.0000  -0.0000
    -0.0000  -0.0000  -0.0000  -0.0000  -0.0000  -0.0000  -0.0000  -0.0000
    -0.0000  -0.0000  -0.0000  -0.0000  -0.0000  -0.0000  -0.0000  -0.0000
    -0.0000  -0.0000  -0.0000  -0.0000

          k = 0.6250-0.6250 0.3750 (   477 PWs)   bands (ev):

   -70.5669 -67.7888 -37.3114 -36.8472 -36.1131 -34.2191 -33.7602 -33.3887
    14.1820  14.1840  14.3136  15.1525  15.7250  15.7273  16.5154  16.5451
    19.3214  19.3479  20.7208  22.1981  28.9257  28.9722  29.6080  29.6531
    30.1005  30.7408  49.3625  49.6762  52.2028  52.2156  52.3380  52.3505
    55.4879  55.6272  56.9907  57.0565  57.6052  57.6669  63.8373  63.8724
    64.2025  64.2368  68.7697  69.6390  69.8348  69.8682  70.4109  70.4498
    78.0474  78.0661  78.2924  78.3254  78.3877  79.2476  91.6826  91.9597
    92.4210  93.0832  96.1485  96.1498  96.3458  96.3485  97.9379  97.9558
    98.2222  98.2384 102.5442 102.5540

     occupation numbers 
     1.0000   1.0000   1.0000   1.0000   1.0000   1.0000   1.0000   1.0000
     1.0000   1.0000   1.0000   1.0000   1.0000   1.0000   1.0000   1.0000
    -0.0000  -0.0000  -0.0000  -0.0000  -0.0000  -0.0000  -0.0000  -0.0000
    -0.0000  -0.0000  -0.0000  -0.0000  -0.0000  -0.0000  -0.0000  -0.0000
    -0.0000  -0.0000  -0.0000  -0.0000  -0.0000  -0.0000  -0.0000  -0.0000
    -0.0000  -0.0000  -0.0000  -0.0000  -0.0000  -0.0000  -0.0000  -0.0000
    -0.0000  -0.0000  -0.0000  -0.0000  -0.0000  -0.0000  -0.0000  -0.0000
    -0.0000  -0.0000  -0.0000  -0.0000  -0.0000  -0.0000  -0.0000  -0.0000
    -0.0000  -0.0000  -0.0000  -0.0000

          k = 0.5000-0.5000 0.3750 (   474 PWs)   bands (ev):

   -70.5622 -67.7837 -37.3194 -36.8554 -36.1313 -34.2281 -33.7658 -33.4144
    14.0637  14.1497  14.7806  15.4217  15.6367  16.0309  16.5479  16.5876
    19.3626  19.4432  23.5223  24.5110  25.2615  26.2515  28.3938  29.0682
    29.2204  29.8482  50.5192  50.6615  54.0186  54.0263  54.3867  54.7151
    55.3485  55.5803  58.1531  58.3072  61.1741  61.3315  61.6889  62.4527
    62.5138  63.2965  63.4755  64.2598  67.0692  67.9304  69.6372  70.5556
    74.7884  75.6014  84.5892  84.9131  86.1604  86.3293  86.3458  86.5995
    90.1114  90.2799  94.4476  94.5830  96.8758  97.1164  97.8696  98.1621
    98.2938  98.8717 101.1422 101.2746

     occupation numbers 
     1.0000   1.0000   1.0000   1.0000   1.0000   1.0000   1.0000   1.0000
     1.0000   1.0000   1.0000   1.0000   1.0000   1.0000   1.0000   1.0000
    -0.0000  -0.0000  -0.0000  -0.0000  -0.0000  -0.0000  -0.0000  -0.0000
    -0.0000  -0.0000  -0.0000  -0.0000  -0.0000  -0.0000  -0.0000  -0.0000
    -0.0000  -0.0000  -0.0000  -0.0000  -0.0000  -0.0000  -0.0000  -0.0000
    -0.0000  -0.0000  -0.0000  -0.0000  -0.0000  -0.0000  -0.0000  -0.0000
    -0.0000  -0.0000  -0.0000  -0.0000  -0.0000  -0.0000  -0.0000  -0.0000
    -0.0000  -0.0000  -0.0000  -0.0000  -0.0000  -0.0000  -0.0000  -0.0000
    -0.0000  -0.0000  -0.0000  -0.0000

          k = 0.0000 0.0000 0.6250 (   474 PWs)   bands (ev):

   -70.5485 -67.7690 -37.3190 -36.9098 -36.1353 -34.2258 -33.8312 -33.4197
    13.3898  13.8701  14.5645  15.9356  16.0877  16.1611  16.8047  17.9737
    18.0444  18.9096  19.3795  21.0063  31.4184  31.5761  31.9686  32.1228
    33.6422  34.4244  35.6413  36.1531  47.2525  47.9478  51.9108  52.2817
    53.6855  53.7895  53.9611  54.0642  59.2573  59.6972  71.6423  71.6765
    72.0625  72.1341  72.1774  72.2136  75.1620  75.4126  80.0664  80.0855
    80.4522  80.4736  82.6678  83.0299  86.5800  86.7562  86.7962  87.0719
    87.7871  87.8351  88.3824  88.4329  96.2127  96.2267  96.3227  96.3367
    96.5284  97.1649  97.3033  97.3941

     occupation numbers 
     1.0000   1.0000   1.0000   1.0000   1.0000   1.0000   1.0000   1.0000
     1.0000   1.0000   1.0000   1.0000   1.0000   1.0000   1.0017  -0.0114
    -0.0049  -0.0000  -0.0000  -0.0000  -0.0000  -0.0000  -0.0000  -0.0000
    -0.0000  -0.0000  -0.0000  -0.0000  -0.0000  -0.0000  -0.0000  -0.0000
    -0.0000  -0.0000  -0.0000  -0.0000  -0.0000  -0.0000  -0.0000  -0.0000
    -0.0000  -0.0000  -0.0000  -0.0000  -0.0000  -0.0000  -0.0000  -0.0000
    -0.0000  -0.0000  -0.0000  -0.0000  -0.0000  -0.0000  -0.0000  -0.0000
    -0.0000  -0.0000  -0.0000  -0.0000  -0.0000  -0.0000  -0.0000  -0.0000
    -0.0000  -0.0000  -0.0000  -0.0000

          k = 0.0000-0.1250 0.7500 (   470 PWs)   bands (ev):

   -70.5335 -67.7524 -37.3593 -36.9259 -36.1759 -34.2710 -33.8493 -33.4629
    13.3059  13.4318  14.9970  15.2918  16.2518  16.5269  17.4791  18.1826
    18.4872  19.6670  22.4666  23.4541  27.1408  27.8652  29.7130  30.1728
    33.7963  34.5728  36.6540  37.1824  42.6330  43.4515  51.4622  51.7868
    54.9804  55.3261  59.6035  59.8989  64.1071  64.5388  67.7974  68.1004
    71.5414  72.0140  75.7495  76.2768  76.6646  76.6802  79.8801  80.2474
    80.3823  80.6813  82.7134  83.0662  84.8355  85.2234  86.5505  87.0138
    87.4703  87.6110  91.5749  91.8833  91.9077  92.0730  93.6320  93.7471
    99.0704  99.3467  99.6016  99.6699

     occupation numbers 
     1.0000   1.0000   1.0000   1.0000   1.0000   1.0000   1.0000   1.0000
     1.0000   1.0000   1.0000   1.0000   1.0000   1.0000   0.4442  -0.0006
    -0.0000  -0.0000  -0.0000  -0.0000  -0.0000  -0.0000  -0.0000  -0.0000
    -0.0000  -0.0000  -0.0000  -0.0000  -0.0000  -0.0000  -0.0000  -0.0000
    -0.0000  -0.0000  -0.0000  -0.0000  -0.0000  -0.0000  -0.0000  -0.0000
    -0.0000  -0.0000  -0.0000  -0.0000  -0.0000  -0.0000  -0.0000  -0.0000
    -0.0000  -0.0000  -0.0000  -0.0000  -0.0000  -0.0000  -0.0000  -0.0000
    -0.0000  -0.0000  -0.0000  -0.0000  -0.0000  -0.0000  -0.0000  -0.0000
    -0.0000  -0.0000  -0.0000  -0.0000

          k =-0.1250 0.8750-0.1250 (   472 PWs)   bands (ev):

   -70.5266 -67.7448 -37.3796 -36.9267 -36.1998 -34.2934 -33.8475 -33.4903
    13.1693  13.1723  14.9890  14.9906  16.3565  17.3166  17.3403  18.2657
    19.4565  19.4778  25.7815  25.8472  26.4718  26.5366  26.9143  27.4716
    35.2578  35.2780  35.9024  35.9206  40.0882  41.0218  52.0114  52.3225
    59.4010  59.6717  61.4109  61.4399  61.7854  61.8137  69.5029  69.5345
    69.9691  70.0027  71.4642  71.7421  81.2445  81.5362  82.5523  82.5529
    82.6602  82.6612  82.8518  82.9110  84.3004  84.3060  85.0885  85.0936
    89.4901  89.6707  91.3497  91.6911  94.0158  94.0169  94.0268  94.0279
    99.5764  99.5856  99.9225  99.9384

     occupation numbers 
     1.0000   1.0000   1.0000   1.0000   1.0000   1.0000   1.0000   1.0000
     1.0000   1.0000   1.0000   1.0000   1.0000   0.8867   0.8379  -0.0001
    -0.0000  -0.0000  -0.0000  -0.0000  -0.0000  -0.0000  -0.0000  -0.0000
    -0.0000  -0.0000  -0.0000  -0.0000  -0.0000  -0.0000  -0.0000  -0.0000
    -0.0000  -0.0000  -0.0000  -0.0000  -0.0000  -0.0000  -0.0000  -0.0000
    -0.0000  -0.0000  -0.0000  -0.0000  -0.0000  -0.0000  -0.0000  -0.0000
    -0.0000  -0.0000  -0.0000  -0.0000  -0.0000  -0.0000  -0.0000  -0.0000
    -0.0000  -0.0000  -0.0000  -0.0000  -0.0000  -0.0000  -0.0000  -0.0000
    -0.0000  -0.0000  -0.0000  -0.0000

          k = 0.0000 0.0000 0.8750 (   482 PWs)   bands (ev):

   -70.5204 -67.7379 -37.3890 -36.9453 -36.2122 -34.3037 -33.8679 -33.5053
    12.9186  12.9190  14.7137  14.7759  17.2554  17.3249  17.4456  19.3734
    19.4454  19.6357  25.2073  25.7331  27.6297  27.7933  27.9364  28.0989
    32.7607  33.7817  33.9074  34.7372  38.5149  39.4880  55.1552  55.3452
    60.8474  60.9398  61.2188  61.3112  63.6547  64.0870  66.5628  66.8690
    69.0897  69.1528  69.5361  69.6019  77.0521  77.1772  85.5793  85.5819
    86.0099  86.0572  86.0598  86.5314  89.6562  89.8934  89.9174  89.9193
    90.5199  90.5222  90.9471  91.0683  94.8864  95.0218  95.6323  95.6335
    95.6902  95.6912  98.2811  98.4296

     occupation numbers 
     1.0000   1.0000   1.0000   1.0000   1.0000   1.0000   1.0000   1.0000
     1.0000   1.0000   1.0000   1.0000   0.9780   0.8705   0.5483  -0.0000
    -0.0000  -0.0000  -0.0000  -0.0000  -0.0000  -0.0000  -0.0000  -0.0000
    -0.0000  -0.0000  -0.0000  -0.0000  -0.0000  -0.0000  -0.0000  -0.0000
    -0.0000  -0.0000  -0.0000  -0.0000  -0.0000  -0.0000  -0.0000  -0.0000
    -0.0000  -0.0000  -0.0000  -0.0000  -0.0000  -0.0000  -0.0000  -0.0000
    -0.0000  -0.0000  -0.0000  -0.0000  -0.0000  -0.0000  -0.0000  -0.0000
    -0.0000  -0.0000  -0.0000  -0.0000  -0.0000  -0.0000  -0.0000  -0.0000
    -0.0000  -0.0000  -0.0000  -0.0000

          k = 0.0000 0.1250 0.0000 (   470 PWs)   bands (ev):

   -70.6277 -67.8558 -37.1586 -36.6974 -35.9652 -34.0397 -33.5834 -33.2310
     9.4750   9.5909  15.2178  15.2241  15.3208  16.2227  16.4145  17.1269
    17.1284  17.2446  18.9751  19.2238  40.1544  40.2701  41.4416  41.4419
    41.5910  41.5912  44.6329  44.9662  46.7841  46.7846  47.4729  47.4731
[...]
    18.2586  19.7872  20.1431  21.5342  25.9366  26.9805  32.8040  33.3336
    34.6676  35.1130  41.8866  42.1663  46.2482  46.6482  46.9694  47.5256
    50.8979  51.4577  61.2784  61.5475  65.8937  66.0151  66.1402  66.6011
    68.6004  68.9424  72.1911  72.5250  74.3753  74.5881  74.8530  74.9273
    79.2279  79.5608  81.3156  81.8266  84.7648  85.0276  86.0145  86.4893
    88.8860  88.9459  90.3257  90.6265  91.3048  92.0779  93.9198  94.1300
    97.1126  97.5681  98.3452  98.9163

     occupation numbers 
     1.0000   1.0000   1.0000   1.0000   1.0000   1.0000   1.0000   1.0000
     1.0000   1.0000   1.0000   1.0000   1.0000   1.0000   1.0029   0.1467
    -0.0001  -0.0000  -0.0000  -0.0000  -0.0000  -0.0000  -0.0000  -0.0000
    -0.0000  -0.0000  -0.0000  -0.0000  -0.0000  -0.0000  -0.0000  -0.0000
    -0.0000  -0.0000  -0.0000  -0.0000  -0.0000  -0.0000  -0.0000  -0.0000
    -0.0000  -0.0000  -0.0000  -0.0000  -0.0000  -0.0000  -0.0000  -0.0000
    -0.0000  -0.0000  -0.0000  -0.0000  -0.0000  -0.0000  -0.0000  -0.0000
    -0.0000  -0.0000  -0.0000  -0.0000  -0.0000  -0.0000  -0.0000  -0.0000
    -0.0000  -0.0000  -0.0000  -0.0000

          k = 0.6250 0.0000-0.2500 (   474 PWs)   bands (ev):

   -70.5529 -67.7737 -37.3375 -36.8731 -36.1349 -34.2471 -33.7946 -33.4070
    13.3053  14.4489  14.6979  15.0488  16.0508  16.1548  16.8357  17.5901
    18.2587  19.7892  20.1413  21.5342  25.9367  26.9802  32.8040  33.3339
    34.6675  35.1131  41.8865  42.1661  46.2478  46.6493  46.9686  47.5257
    50.8980  51.4576  61.2784  61.5475  65.8935  66.0153  66.1399  66.6011
    68.6005  68.9424  72.1913  72.5248  74.3750  74.5886  74.8520  74.9279
    79.2280  79.5607  81.3158  81.8266  84.7647  85.0277  86.0146  86.4893
    88.8860  88.9460  90.3254  90.6268  91.3047  92.0779  93.9196  94.1301
    97.1122  97.5691  98.3440  98.9167

     occupation numbers 
     1.0000   1.0000   1.0000   1.0000   1.0000   1.0000   1.0000   1.0000
     1.0000   1.0000   1.0000   1.0000   1.0000   1.0000   1.0027   0.1446
    -0.0001  -0.0000  -0.0000  -0.0000  -0.0000  -0.0000  -0.0000  -0.0000
    -0.0000  -0.0000  -0.0000  -0.0000  -0.0000  -0.0000  -0.0000  -0.0000
    -0.0000  -0.0000  -0.0000  -0.0000  -0.0000  -0.0000  -0.0000  -0.0000
    -0.0000  -0.0000  -0.0000  -0.0000  -0.0000  -0.0000  -0.0000  -0.0000
    -0.0000  -0.0000  -0.0000  -0.0000  -0.0000  -0.0000  -0.0000  -0.0000
    -0.0000  -0.0000  -0.0000  -0.0000  -0.0000  -0.0000  -0.0000  -0.0000
    -0.0000  -0.0000  -0.0000  -0.0000

          k =-0.1250 0.6250-0.1250 (   474 PWs)   bands (ev):

   -70.5506 -67.7711 -37.3421 -36.8655 -36.1517 -34.2521 -33.7785 -33.4328
    13.6019  13.9193  14.8243  15.3096  15.8495  16.2543  17.1248  17.1825
    18.2987  19.3576  20.0124  21.5444  28.8844  29.4413  29.7181  30.0993
    36.9067  37.3669  38.4238  38.8136  45.9404  46.3894  48.7568  49.3965
    54.3892  54.6821  55.4486  55.7965  64.1518  64.5635  68.3894  68.5771
    69.4157  69.8597  72.4690  72.6280  75.7751  76.1435  79.3592  79.5323
    79.7513  80.0519  80.6994  80.9528  82.0849  82.6549  85.3526  85.4739
    89.0098  89.7719  91.2373  91.5197  93.6737  94.0631  94.6414  95.0092
    97.9897  98.3906  98.9233  98.9297

     occupation numbers 
     1.0000   1.0000   1.0000   1.0000   1.0000   1.0000   1.0000   1.0000
     1.0000   1.0000   1.0000   1.0000   1.0000   1.0000   1.0354   1.0274
    -0.0001  -0.0000  -0.0000  -0.0000  -0.0000  -0.0000  -0.0000  -0.0000
    -0.0000  -0.0000  -0.0000  -0.0000  -0.0000  -0.0000  -0.0000  -0.0000
    -0.0000  -0.0000  -0.0000  -0.0000  -0.0000  -0.0000  -0.0000  -0.0000
    -0.0000  -0.0000  -0.0000  -0.0000  -0.0000  -0.0000  -0.0000  -0.0000
    -0.0000  -0.0000  -0.0000  -0.0000  -0.0000  -0.0000  -0.0000  -0.0000
    -0.0000  -0.0000  -0.0000  -0.0000  -0.0000  -0.0000  -0.0000  -0.0000
    -0.0000  -0.0000  -0.0000  -0.0000

          k = 0.7500-0.2500-0.1250 (   472 PWs)   bands (ev):

   -70.5426 -67.7623 -37.3600 -36.8832 -36.1679 -34.2739 -33.7986 -33.4497
    13.5674  13.9244  15.1216  15.2818  15.6385  16.5441  16.8779  17.3986
    18.6554  19.5888  22.9883  24.0206  25.1075  26.1421  28.4968  29.1802
    36.9231  37.3661  40.0269  40.3342  43.5087  44.1465  47.7285  48.3176
    54.7560  55.1024  61.3791  61.6737  62.7991  63.1433  70.1329  70.7153
    71.2877  71.6836  72.7538  72.9025  75.0253  75.3919  78.0302  78.1413
    78.9024  79.6422  80.3009  80.4225  81.5360  82.2740  86.3229  86.5009
    87.9875  88.6507  89.7497  89.8661  91.3112  91.5627  95.6047  95.8282
    99.2390  99.3737  99.6238  99.7494

     occupation numbers 
     1.0000   1.0000   1.0000   1.0000   1.0000   1.0000   1.0000   1.0000
     1.0000   1.0000   1.0000   1.0000   1.0000   1.0000   1.0049   0.6889
    -0.0000  -0.0000  -0.0000  -0.0000  -0.0000  -0.0000  -0.0000  -0.0000
    -0.0000  -0.0000  -0.0000  -0.0000  -0.0000  -0.0000  -0.0000  -0.0000
    -0.0000  -0.0000  -0.0000  -0.0000  -0.0000  -0.0000  -0.0000  -0.0000
    -0.0000  -0.0000  -0.0000  -0.0000  -0.0000  -0.0000  -0.0000  -0.0000
    -0.0000  -0.0000  -0.0000  -0.0000  -0.0000  -0.0000  -0.0000  -0.0000
    -0.0000  -0.0000  -0.0000  -0.0000  -0.0000  -0.0000  -0.0000  -0.0000
    -0.0000  -0.0000  -0.0000  -0.0000

          k =-0.5000 0.3750 0.5000 (   474 PWs)   bands (ev):

   -70.5622 -67.7837 -37.3160 -36.8622 -36.1275 -34.2224 -33.7782 -33.4080
    14.0640  14.1495  14.7803  15.4200  15.6384  16.0321  16.5637  16.5706
    19.3669  19.4391  23.5221  24.5113  25.2618  26.2511  28.3932  29.0712
    29.2179  29.8484  50.5193  50.6615  54.0182  54.0265  54.3870  54.7151
    55.3486  55.5801  58.1530  58.3072  61.1741  61.3315  61.6890  62.4499
    62.5171  63.2964  63.4745  64.2600  67.0691  67.9310  69.6369  70.5557
    74.7883  75.6015  84.5889  84.9132  86.1602  86.3295  86.3458  86.5994
    90.1116  90.2798  94.4478  94.5829  96.8760  97.1163  97.8693  98.1623
    98.2936  98.8717 101.1419 101.2748

     occupation numbers 
     1.0000   1.0000   1.0000   1.0000   1.0000   1.0000   1.0000   1.0000
     1.0000   1.0000   1.0000   1.0000   1.0000   1.0000   1.0000   1.0000
    -0.0000  -0.0000  -0.0000  -0.0000  -0.0000  -0.0000  -0.0000  -0.0000
    -0.0000  -0.0000  -0.0000  -0.0000  -0.0000  -0.0000  -0.0000  -0.0000
    -0.0000  -0.0000  -0.0000  -0.0000  -0.0000  -0.0000  -0.0000  -0.0000
    -0.0000  -0.0000  -0.0000  -0.0000  -0.0000  -0.0000  -0.0000  -0.0000
    -0.0000  -0.0000  -0.0000  -0.0000  -0.0000  -0.0000  -0.0000  -0.0000
    -0.0000  -0.0000  -0.0000  -0.0000  -0.0000  -0.0000  -0.0000  -0.0000
    -0.0000  -0.0000  -0.0000  -0.0000

          k = 0.0000 0.6250 0.0000 (   474 PWs)   bands (ev):

   -70.5485 -67.7690 -37.3405 -36.8661 -36.1611 -34.2483 -33.7756 -33.4494
    13.3897  13.8702  14.5649  15.9346  16.1208  16.1239  16.8092  18.0078
    18.0110  18.9092  19.3789  21.0068  31.4859  31.4867  32.0565  32.0569
    33.6419  34.4243  35.6418  36.1531  47.2523  47.9479  51.9108  52.2815
    53.7279  53.7281  54.0220  54.0222  59.2575  59.6972  71.6587  71.6589
    72.0627  72.1338  72.1960  72.1962  75.1619  75.4125  80.0755  80.0757
    80.4632  80.4633  82.6679  83.0299  86.5795  86.7563  86.7970  87.0719
    87.8099  87.8103  88.4085  88.4087  96.2181  96.2194  96.3301  96.3312
    96.5285  97.1645  97.3035  97.3940

     occupation numbers 
     1.0000   1.0000   1.0000   1.0000   1.0000   1.0000   1.0000   1.0000
     1.0000   1.0000   1.0000   1.0000   1.0000   1.0000   1.0018  -0.0078
    -0.0075  -0.0000  -0.0000  -0.0000  -0.0000  -0.0000  -0.0000  -0.0000
    -0.0000  -0.0000  -0.0000  -0.0000  -0.0000  -0.0000  -0.0000  -0.0000
    -0.0000  -0.0000  -0.0000  -0.0000  -0.0000  -0.0000  -0.0000  -0.0000
    -0.0000  -0.0000  -0.0000  -0.0000  -0.0000  -0.0000  -0.0000  -0.0000
    -0.0000  -0.0000  -0.0000  -0.0000  -0.0000  -0.0000  -0.0000  -0.0000
    -0.0000  -0.0000  -0.0000  -0.0000  -0.0000  -0.0000  -0.0000  -0.0000
    -0.0000  -0.0000  -0.0000  -0.0000

          k =-0.1250 0.7500 0.0000 (   470 PWs)   bands (ev):

   -70.5335 -67.7524 -37.3711 -36.9014 -36.1904 -34.2843 -33.8163 -33.4807
    13.3058  13.4320  14.9975  15.2912  16.2550  16.5220  17.4816  18.1846
    18.4848  19.6667  22.4664  23.4545  27.1409  27.8650  29.7135  30.1723
    33.7962  34.5726  36.6543  37.1824  42.6328  43.4515  51.4622  51.7867
    54.9805  55.3261  59.6035  59.8988  64.1074  64.5389  67.7974  68.1004
    71.5416  72.0141  75.7494  76.2768  76.6645  76.6802  79.8800  80.2475
    80.3821  80.6814  82.7134  83.0663  84.8354  85.2236  86.5503  87.0138
    87.4703  87.6110  91.5749  91.8832  91.9080  92.0729  93.6320  93.7471
    99.0714  99.3438  99.6086  99.6649

     occupation numbers 
     1.0000   1.0000   1.0000   1.0000   1.0000   1.0000   1.0000   1.0000
     1.0000   1.0000   1.0000   1.0000   1.0000   1.0000   0.4367  -0.0006
    -0.0000  -0.0000  -0.0000  -0.0000  -0.0000  -0.0000  -0.0000  -0.0000
    -0.0000  -0.0000  -0.0000  -0.0000  -0.0000  -0.0000  -0.0000  -0.0000
    -0.0000  -0.0000  -0.0000  -0.0000  -0.0000  -0.0000  -0.0000  -0.0000
    -0.0000  -0.0000  -0.0000  -0.0000  -0.0000  -0.0000  -0.0000  -0.0000
    -0.0000  -0.0000  -0.0000  -0.0000  -0.0000  -0.0000  -0.0000  -0.0000
    -0.0000  -0.0000  -0.0000  -0.0000  -0.0000  -0.0000  -0.0000  -0.0000
    -0.0000  -0.0000  -0.0000  -0.0000

          k = 0.7500 0.0000-0.1250 (   470 PWs)   bands (ev):

   -70.5335 -67.7524 -37.3677 -36.9085 -36.1862 -34.2798 -33.8272 -33.4747
    13.3059  13.4318  14.9979  15.2907  16.2526  16.5259  17.4797  18.1838
    18.4862  19.6667  22.4664  23.4544  27.1411  27.8646  29.7136  30.1724
    33.7962  34.5727  36.6543  37.1823  42.6328  43.4515  51.4622  51.7868
    54.9804  55.3260  59.6036  59.8989  64.1073  64.5388  67.7974  68.1004
    71.5413  72.0140  75.7496  76.2768  76.6642  76.6804  79.8800  80.2474
    80.3823  80.6814  82.7134  83.0662  84.8355  85.2235  86.5504  87.0138
    87.4704  87.6110  91.5748  91.8853  91.9055  92.0732  93.6321  93.7470
    99.0699  99.3479  99.5994  99.6714

     occupation numbers 
     1.0000   1.0000   1.0000   1.0000   1.0000   1.0000   1.0000   1.0000
     1.0000   1.0000   1.0000   1.0000   1.0000   1.0000   0.4425  -0.0006
    -0.0000  -0.0000  -0.0000  -0.0000  -0.0000  -0.0000  -0.0000  -0.0000
    -0.0000  -0.0000  -0.0000  -0.0000  -0.0000  -0.0000  -0.0000  -0.0000
    -0.0000  -0.0000  -0.0000  -0.0000  -0.0000  -0.0000  -0.0000  -0.0000
    -0.0000  -0.0000  -0.0000  -0.0000  -0.0000  -0.0000  -0.0000  -0.0000
    -0.0000  -0.0000  -0.0000  -0.0000  -0.0000  -0.0000  -0.0000  -0.0000
    -0.0000  -0.0000  -0.0000  -0.0000  -0.0000  -0.0000  -0.0000  -0.0000
    -0.0000  -0.0000  -0.0000  -0.0000

          k = 0.0000 0.8750 0.0000 (   482 PWs)   bands (ev):

   -70.5204 -67.7379 -37.3925 -36.9378 -36.2167 -34.3074 -33.8584 -33.5105
    12.9186  12.9189  14.7143  14.7753  17.2831  17.2892  17.4536  19.4042
    19.4109  19.6394  25.2067  25.7340  27.6897  27.6917  28.0377  28.0388
    32.7605  33.7814  33.9078  34.7374  38.5148  39.4880  55.1552  55.3452
    60.8877  60.8879  61.2706  61.2709  63.6549  64.0870  66.5628  66.8688
    69.1187  69.1190  69.5713  69.5715  77.0521  77.1772  85.5805  85.5807
    86.0097  86.0585  86.0586  86.5316  89.6564  89.8944  89.9179  89.9180
    90.5209  90.5210  90.9471  91.0683  94.8860  95.0220  95.6328  95.6329
    95.6907  95.6908  98.2812  98.4296

     occupation numbers 
     1.0000   1.0000   1.0000   1.0000   1.0000   1.0000   1.0000   1.0000
     1.0000   1.0000   1.0000   1.0000   0.9429   0.9338   0.5236  -0.0000
    -0.0000  -0.0000  -0.0000  -0.0000  -0.0000  -0.0000  -0.0000  -0.0000
    -0.0000  -0.0000  -0.0000  -0.0000  -0.0000  -0.0000  -0.0000  -0.0000
    -0.0000  -0.0000  -0.0000  -0.0000  -0.0000  -0.0000  -0.0000  -0.0000
    -0.0000  -0.0000  -0.0000  -0.0000  -0.0000  -0.0000  -0.0000  -0.0000
    -0.0000  -0.0000  -0.0000  -0.0000  -0.0000  -0.0000  -0.0000  -0.0000
    -0.0000  -0.0000  -0.0000  -0.0000  -0.0000  -0.0000  -0.0000  -0.0000
    -0.0000  -0.0000  -0.0000  -0.0000

     the Fermi energy is    17.4612 ev

!    total energy              =    -254.35364155 Ry
     estimated scf accuracy    <          1.5E-09 Ry
     smearing contrib. (-TS)   =       0.00004250 Ry
     internal energy E=F+TS    =    -254.35368405 Ry

     The total energy is F=E-TS. E is the sum of the following terms:
     one-electron contribution =    -114.29225385 Ry
     hartree contribution      =      66.63497496 Ry
     xc contribution           =     -34.80641197 Ry
     ewald contribution        =    -171.88999319 Ry

     total magnetization       =    -0.00     0.00     2.17 Bohr mag/cell
     absolute magnetization    =     2.32 Bohr mag/cell

     convergence has been achieved in  23 iterations

     Forces acting on atoms (cartesian axes, Ry/au):

     atom    1 type  1   force =     0.00000000    0.00000000    0.00000000
     The non-local contrib.  to forces
     atom    1 type  1   force =     0.00000000    0.00000000    0.00000000
     The ionic contribution  to forces
     atom    1 type  1   force =    -0.00000000   -0.00000000   -0.00000000
     The local contribution  to forces
     atom    1 type  1   force =    -0.00000000    0.00000000    0.00000000
     The core correction contribution to forces
     atom    1 type  1   force =    -0.00000000    0.00000000    0.00000000
     The Hubbard contrib.    to forces
     atom    1 type  1   force =     0.00000000    0.00000000    0.00000000
     The SCF correction term to forces
     atom    1 type  1   force =    -0.00000000   -0.00000000    0.00000000

     Total force =     0.000000     Total SCF correction =     0.000000


     Computing stress (Cartesian axis) and pressure

          total   stress  (Ry/bohr**3)                   (kbar)     P=     -153.12
  -0.00104125   0.00000000  -0.00000000         -153.17        0.00       -0.00
   0.00000000  -0.00104125   0.00000000            0.00     -153.17        0.00
  -0.00000000   0.00000000  -0.00104013           -0.00        0.00     -153.01

     kinetic stress (kbar)  77931.81      0.00      0.00
                                0.00  77931.81     -0.00
                                0.00     -0.00  77931.10

     local   stress (kbar)  66140.73     -0.00      0.00
                               -0.00  66140.73     -0.00
                                0.00     -0.00  66143.46

     nonloc. stress (kbar) -60791.01     -0.00      0.00
                               -0.00 -60791.01     -0.00
                                0.00     -0.00 -60791.58

     hartree stress (kbar)  41043.60      0.00     -0.00
                                0.00  41043.60      0.00
                               -0.00      0.00  41042.28

     exc-cor stress (kbar)  -2483.84      0.00     -0.00
                                0.00  -2483.84      0.00
                               -0.00      0.00  -2483.87

     corecor stress (kbar) -16120.50     -0.00      0.00
                               -0.00 -16120.50     -0.00
                                0.00     -0.00 -16120.43

     ewald   stress (kbar)-105873.96      0.00      0.00
                                0.00-105873.96     -0.00
                                0.00     -0.00-105873.96

     hubbard stress (kbar)      0.00      0.00      0.00
                                0.00      0.00      0.00
                                0.00      0.00      0.00

     DFT-D   stress (kbar)      0.00      0.00      0.00
                                0.00      0.00      0.00
                                0.00      0.00      0.00

     XDM     stress (kbar)      0.00      0.00      0.00
                                0.00      0.00      0.00
                                0.00      0.00      0.00

     dft-nl  stress (kbar)      0.00      0.00      0.00
                                0.00      0.00      0.00
                                0.00      0.00      0.00

     TS-vdW  stress (kbar)      0.00      0.00      0.00
                                0.00      0.00      0.00
                                0.00      0.00      0.00

     MDB     stress (kbar)      0.00      0.00      0.00
                                0.00      0.00      0.00
                                0.00      0.00      0.00

     3D-RISM stress (kbar)      0.00      0.00      0.00
                                0.00      0.00      0.00
                                0.00      0.00      0.00


     Writing all to output data dir ./work/iron.save/ :
     XML data file, charge density, pseudopotentials, collected wavefunctions

     init_run     :      1.28s CPU      1.32s WALL (       1 calls)
     electrons    :     30.03s CPU     31.73s WALL (       1 calls)
     forces       :      0.16s CPU      0.19s WALL (       1 calls)
     stress       :      0.53s CPU      0.58s WALL (       1 calls)

     Called by init_run:
     wfcinit      :      0.41s CPU      0.43s WALL (       1 calls)
     wfcinit:atom :      0.00s CPU      0.00s WALL (      14 calls)
     wfcinit:wfcr :      0.39s CPU      0.41s WALL (      14 calls)
     potinit      :      0.22s CPU      0.22s WALL (       1 calls)
     hinit0       :      0.57s CPU      0.58s WALL (       1 calls)

     Called by electrons:
     c_bands      :     20.74s CPU     21.42s WALL (      24 calls)
     sum_band     :      6.75s CPU      7.28s WALL (      24 calls)
     v_of_rho     :      0.60s CPU      0.67s WALL (      24 calls)
     v_h          :      0.01s CPU      0.01s WALL (      24 calls)
     v_xc         :      0.63s CPU      0.72s WALL (      26 calls)
     newd         :      1.83s CPU      2.24s WALL (      24 calls)
     mix_rho      :      0.08s CPU      0.08s WALL (      24 calls)

     Called by c_bands:
     init_us_2    :      0.10s CPU      0.10s WALL (     714 calls)
     cegterg      :     18.71s CPU     19.23s WALL (     336 calls)

     Called by sum_band:
     sum_band:wei :      0.02s CPU      0.02s WALL (      24 calls)
     sum_band:loo :      3.64s CPU      3.74s WALL (      24 calls)
     sum_band:buf :      0.03s CPU      0.04s WALL (     336 calls)
     sum_band:ini :      0.04s CPU      0.04s WALL (     336 calls)
     sum_band:cal :      0.11s CPU      0.11s WALL (     336 calls)
     sum_band:bec :      0.22s CPU      0.23s WALL (     336 calls)
     addusdens    :      2.99s CPU      3.41s WALL (      24 calls)
     addusd:skk   :      0.00s CPU      0.00s WALL (      24 calls)

     Called by *egterg:
     cdiaghg      :      2.76s CPU      2.78s WALL (     950 calls)
     cegterg:over :      1.02s CPU      1.02s WALL (     628 calls)
     cegterg:upda :      0.56s CPU      0.58s WALL (     628 calls)
     cegterg:last :      1.33s CPU      1.33s WALL (     575 calls)
     h_psi        :     12.29s CPU     12.72s WALL (     978 calls)
     s_psi        :      0.36s CPU      0.38s WALL (     978 calls)
     g_psi        :      0.12s CPU      0.12s WALL (     628 calls)

     Called by h_psi:
     h_psi:calbec :      0.25s CPU      0.26s WALL (     978 calls)
     vloc_psi     :     11.56s CPU     11.94s WALL (     978 calls)
     add_vuspsi   :      0.39s CPU      0.40s WALL (     978 calls)

     General routines
     calbec       :      0.44s CPU      0.45s WALL (    1552 calls)
     fft          :      0.40s CPU      0.41s WALL (     932 calls)
     ffts         :      0.18s CPU      0.18s WALL (     192 calls)
     fftw         :     10.76s CPU     11.09s WALL (  245952 calls)
     interpolate  :      0.20s CPU      0.20s WALL (      96 calls)

     Parallel routines

     PWSCF        :     32.14s CPU     33.99s WALL


   This run was terminated on:   1:15:59  22Jul2026            

=------------------------------------------------------------------------------=
   JOB DONE.
=------------------------------------------------------------------------------=
