
     Program PWSCF v.8.0dev starts on 22Jul2026 at  1:16: 1 
        Git branch: develop
        Last git commit: 5cea3446c983f943a236bc42ed84c76056277d1b
        Last git commit date: Fri Jul 17 20:25:47 2026 +0000
        Last git commit subject: Merge branch 'flang-suppress-warning' into 'develo

     This program is part of the open-source Quantum ESPRESSO suite
     for quantum simulation of materials; please cite
         "P. Giannozzi et al., J. Phys.:Condens. Matter 21 395502 (2009);
         "P. Giannozzi et al., J. Phys.:Condens. Matter 29 465901 (2017);
         "P. Giannozzi et al., J. Chem. Phys. 152 154105 (2020);
          URL http://www.quantum-espresso.org", 
     in publications or presentations arising from this work. More details at
     http://www.quantum-espresso.org/quote

     Parallel version (MPI), running on     4 processors

     MPI processes distributed on     1 nodes
     830 MiB available memory on the printing compute node when the environment starts

     Reading input from iron.nscf.in

     Current dimensions of program PWSCF are:
     Max number of different atomic species (ntypx) = 10
     Max number of k-points (npk) =  40000
     Max angular momentum in pseudopotentials (lmaxx) =  4

     Atomic positions and unit cell read from directory:
     ./work/iron.save/


     Fixed quantization axis for GGA:     0.000000    0.000000    1.000000

     K-points division:     npool     =       4
     Subspace diagonalization in iterative solution of the eigenvalue problem:
     a serial algorithm will be used


     G-vector sticks info
     --------------------
     sticks:   dense  smooth     PW     G-vecs:    dense   smooth      PW
     Sum         821     333    137                14963     3805    1055

     Using Slab Decomposition



     bravais-lattice index     =            3
     lattice parameter (alat)  =       5.4200  a.u.
     unit-cell volume          =      79.6100 (a.u.)^3
     number of atoms/cell      =            1
     number of atomic types    =            1
     number of electrons       =        16.00
     number of Kohn-Sham states=           68
     kinetic-energy cutoff     =      50.0000  Ry
     charge density cutoff     =     500.0000  Ry
     Exchange-correlation= PBE
                           (   1   4   3   4   0   0   0)
     Noncollinear calculation with spin-orbit


     celldm(1)=   5.420000  celldm(2)=   0.000000  celldm(3)=   0.000000
     celldm(4)=   0.000000  celldm(5)=   0.000000  celldm(6)=   0.000000

     crystal axes: (cart. coord. in units of alat)
               a(1) = (   0.500000   0.500000   0.500000 )  
               a(2) = (  -0.500000   0.500000   0.500000 )  
               a(3) = (  -0.500000  -0.500000   0.500000 )  

     reciprocal axes: (cart. coord. in units 2 pi/alat)
               b(1) = (  1.000000  0.000000  1.000000 )  
               b(2) = ( -1.000000  1.000000  0.000000 )  
               b(3) = (  0.000000 -1.000000  1.000000 )  


     PseudoPot. # 1 for Fe read from file:
     ./Fe.rel-pbe-spn-rrkjus_psl.0.2.1.UPF
     MD5 check sum: d52b7f5db05852f7cd370f850bf86523
     Pseudo is Ultrasoft + core correction, Zval = 16.0
     Generated using "atomic" code by A. Dal Corso  v.5.0.2 svn rev. 9415
     Using radial grid of 1191 points, 10 beta functions with: 
                l(1) =   0
                l(2) =   0
                l(3) =   1
                l(4) =   1
                l(5) =   1
                l(6) =   1
                l(7) =   2
                l(8) =   2
                l(9) =   2
               l(10) =   2
     Q(r) pseudized with 0 coefficients 


     atomic species   valence    mass     pseudopotential
     Fe               16.00     1.00000     Fe( 1.00)

     No symmetry found


                                    s                        frac. trans.

      isym =  1     identity                                     

 Time Reversal            0
 cryst.   s( 1) = (     1          0          0      )
                  (     0          1          0      )
                  (     0          0          1      )

 cart.    s( 1) = (  1.0000000  0.0000000  0.0000000 )
                  (  0.0000000  1.0000000  0.0000000 )
                  (  0.0000000  0.0000000  1.0000000 )


     the magnetic double point group is C_1 (1)     [C_1 (1)    ]
     using the double point group C_1 (1)    
     there are  2 classes and  1 irreducible representations
     the character table:

       E     -E   
                  
G_2    1.00 -1.00

     the symmetry operations in each class and the name of the first element:

     E             1
          identity                                               
     -E           -1
          identity E                                             

   Cartesian axes

     site n.     atom                  positions (alat units)
         1        Fe     tau(   1) = (   0.0000000   0.0000000   0.0000000  )

   Crystallographic axes

     site n.     atom                  positions (cryst. coord.)
         1        Fe     tau(   1) = (  0.0000000  0.0000000  0.0000000  )

     number of k points=    64  Methfessel-Paxton smearing, width (Ry)=  0.0200
                       cart. coord. in units 2pi/alat
        k(    1) = (   0.0000000   0.0000000   0.0000000), wk =   0.0156250
        k(    2) = (   0.0000000  -0.2500000   0.2500000), wk =   0.0156250
        k(    3) = (   0.0000000  -0.5000000   0.5000000), wk =   0.0156250
        k(    4) = (   0.0000000  -0.7500000   0.7500000), wk =   0.0156250
        k(    5) = (  -0.2500000   0.2500000   0.0000000), wk =   0.0156250
        k(    6) = (  -0.2500000   0.0000000   0.2500000), wk =   0.0156250
        k(    7) = (  -0.2500000  -0.2500000   0.5000000), wk =   0.0156250
        k(    8) = (  -0.2500000  -0.5000000   0.7500000), wk =   0.0156250
        k(    9) = (  -0.5000000   0.5000000   0.0000000), wk =   0.0156250
        k(   10) = (  -0.5000000   0.2500000   0.2500000), wk =   0.0156250
        k(   11) = (  -0.5000000   0.0000000   0.5000000), wk =   0.0156250
        k(   12) = (  -0.5000000  -0.2500000   0.7500000), wk =   0.0156250
        k(   13) = (  -0.7500000   0.7500000   0.0000000), wk =   0.0156250
        k(   14) = (  -0.7500000   0.5000000   0.2500000), wk =   0.0156250
        k(   15) = (  -0.7500000   0.2500000   0.5000000), wk =   0.0156250
        k(   16) = (  -0.7500000   0.0000000   0.7500000), wk =   0.0156250
        k(   17) = (   0.2500000   0.0000000   0.2500000), wk =   0.0156250
        k(   18) = (   0.2500000  -0.2500000   0.5000000), wk =   0.0156250
        k(   19) = (   0.2500000  -0.5000000   0.7500000), wk =   0.0156250
        k(   20) = (   0.2500000  -0.7500000   1.0000000), wk =   0.0156250
        k(   21) = (   0.0000000   0.2500000   0.2500000), wk =   0.0156250
        k(   22) = (   0.0000000   0.0000000   0.5000000), wk =   0.0156250
        k(   23) = (   0.0000000  -0.2500000   0.7500000), wk =   0.0156250
        k(   24) = (   0.0000000  -0.5000000   1.0000000), wk =   0.0156250
        k(   25) = (  -0.2500000   0.5000000   0.2500000), wk =   0.0156250
        k(   26) = (  -0.2500000   0.2500000   0.5000000), wk =   0.0156250
        k(   27) = (  -0.2500000   0.0000000   0.7500000), wk =   0.0156250
        k(   28) = (  -0.2500000  -0.2500000   1.0000000), wk =   0.0156250
        k(   29) = (  -0.5000000   0.7500000   0.2500000), wk =   0.0156250
        k(   30) = (  -0.5000000   0.5000000   0.5000000), wk =   0.0156250
        k(   31) = (  -0.5000000   0.2500000   0.7500000), wk =   0.0156250
        k(   32) = (  -0.5000000   0.0000000   1.0000000), wk =   0.0156250
        k(   33) = (   0.5000000   0.0000000   0.5000000), wk =   0.0156250
        k(   34) = (   0.5000000  -0.2500000   0.7500000), wk =   0.0156250
        k(   35) = (   0.5000000  -0.5000000   1.0000000), wk =   0.0156250
        k(   36) = (   0.5000000  -0.7500000   1.2500000), wk =   0.0156250
        k(   37) = (   0.2500000   0.2500000   0.5000000), wk =   0.0156250
        k(   38) = (   0.2500000   0.0000000   0.7500000), wk =   0.0156250
        k(   39) = (   0.2500000  -0.2500000   1.0000000), wk =   0.0156250
        k(   40) = (   0.2500000  -0.5000000   1.2500000), wk =   0.0156250
        k(   41) = (   0.0000000   0.5000000   0.5000000), wk =   0.0156250
        k(   42) = (   0.0000000   0.2500000   0.7500000), wk =   0.0156250
        k(   43) = (   0.0000000   0.0000000   1.0000000), wk =   0.0156250
        k(   44) = (   0.0000000  -0.2500000   1.2500000), wk =   0.0156250
        k(   45) = (  -0.2500000   0.7500000   0.5000000), wk =   0.0156250
        k(   46) = (  -0.2500000   0.5000000   0.7500000), wk =   0.0156250
        k(   47) = (  -0.2500000   0.2500000   1.0000000), wk =   0.0156250
        k(   48) = (  -0.2500000   0.0000000   1.2500000), wk =   0.0156250
        k(   49) = (   0.7500000   0.0000000   0.7500000), wk =   0.0156250
        k(   50) = (   0.7500000  -0.2500000   1.0000000), wk =   0.0156250
        k(   51) = (   0.7500000  -0.5000000   1.2500000), wk =   0.0156250
        k(   52) = (   0.7500000  -0.7500000   1.5000000), wk =   0.0156250
        k(   53) = (   0.5000000   0.2500000   0.7500000), wk =   0.0156250
        k(   54) = (   0.5000000   0.0000000   1.0000000), wk =   0.0156250
        k(   55) = (   0.5000000  -0.2500000   1.2500000), wk =   0.0156250
        k(   56) = (   0.5000000  -0.5000000   1.5000000), wk =   0.0156250
        k(   57) = (   0.2500000   0.5000000   0.7500000), wk =   0.0156250
        k(   58) = (   0.2500000   0.2500000   1.0000000), wk =   0.0156250
        k(   59) = (   0.2500000   0.0000000   1.2500000), wk =   0.0156250
        k(   60) = (   0.2500000  -0.2500000   1.5000000), wk =   0.0156250
        k(   61) = (   0.0000000   0.7500000   0.7500000), wk =   0.0156250
        k(   62) = (   0.0000000   0.5000000   1.0000000), wk =   0.0156250
        k(   63) = (   0.0000000   0.2500000   1.2500000), wk =   0.0156250
        k(   64) = (   0.0000000   0.0000000   1.5000000), wk =   0.0156250

                       cryst. coord.
        k(    1) = (   0.0000000   0.0000000   0.0000000), wk =   0.0156250
        k(    2) = (   0.0000000   0.0000000   0.2500000), wk =   0.0156250
        k(    3) = (   0.0000000   0.0000000   0.5000000), wk =   0.0156250
        k(    4) = (   0.0000000   0.0000000   0.7500000), wk =   0.0156250
        k(    5) = (   0.0000000   0.2500000   0.0000000), wk =   0.0156250
        k(    6) = (   0.0000000   0.2500000   0.2500000), wk =   0.0156250
        k(    7) = (   0.0000000   0.2500000   0.5000000), wk =   0.0156250
        k(    8) = (   0.0000000   0.2500000   0.7500000), wk =   0.0156250
        k(    9) = (   0.0000000   0.5000000   0.0000000), wk =   0.0156250
        k(   10) = (   0.0000000   0.5000000   0.2500000), wk =   0.0156250
        k(   11) = (   0.0000000   0.5000000   0.5000000), wk =   0.0156250
        k(   12) = (   0.0000000   0.5000000   0.7500000), wk =   0.0156250
        k(   13) = (   0.0000000   0.7500000   0.0000000), wk =   0.0156250
        k(   14) = (   0.0000000   0.7500000   0.2500000), wk =   0.0156250
        k(   15) = (   0.0000000   0.7500000   0.5000000), wk =   0.0156250
        k(   16) = (   0.0000000   0.7500000   0.7500000), wk =   0.0156250
        k(   17) = (   0.2500000   0.0000000   0.0000000), wk =   0.0156250
        k(   18) = (   0.2500000   0.0000000   0.2500000), wk =   0.0156250
        k(   19) = (   0.2500000   0.0000000   0.5000000), wk =   0.0156250
        k(   20) = (   0.2500000   0.0000000   0.7500000), wk =   0.0156250
        k(   21) = (   0.2500000   0.2500000   0.0000000), wk =   0.0156250
        k(   22) = (   0.2500000   0.2500000   0.2500000), wk =   0.0156250
        k(   23) = (   0.2500000   0.2500000   0.5000000), wk =   0.0156250
        k(   24) = (   0.2500000   0.2500000   0.7500000), wk =   0.0156250
        k(   25) = (   0.2500000   0.5000000   0.0000000), wk =   0.0156250
        k(   26) = (   0.2500000   0.5000000   0.2500000), wk =   0.0156250
        k(   27) = (   0.2500000   0.5000000   0.5000000), wk =   0.0156250
        k(   28) = (   0.2500000   0.5000000   0.7500000), wk =   0.0156250
        k(   29) = (   0.2500000   0.7500000   0.0000000), wk =   0.0156250
        k(   30) = (   0.2500000   0.7500000   0.2500000), wk =   0.0156250
        k(   31) = (   0.2500000   0.7500000   0.5000000), wk =   0.0156250
        k(   32) = (   0.2500000   0.7500000   0.7500000), wk =   0.0156250
        k(   33) = (   0.5000000   0.0000000   0.0000000), wk =   0.0156250
        k(   34) = (   0.5000000   0.0000000   0.2500000), wk =   0.0156250
        k(   35) = (   0.5000000   0.0000000   0.5000000), wk =   0.0156250
        k(   36) = (   0.5000000   0.0000000   0.7500000), wk =   0.0156250
        k(   37) = (   0.5000000   0.2500000   0.0000000), wk =   0.0156250
        k(   38) = (   0.5000000   0.2500000   0.2500000), wk =   0.0156250
        k(   39) = (   0.5000000   0.2500000   0.5000000), wk =   0.0156250
        k(   40) = (   0.5000000   0.2500000   0.7500000), wk =   0.0156250
        k(   41) = (   0.5000000   0.5000000   0.0000000), wk =   0.0156250
        k(   42) = (   0.5000000   0.5000000   0.2500000), wk =   0.0156250
        k(   43) = (   0.5000000   0.5000000   0.5000000), wk =   0.0156250
        k(   44) = (   0.5000000   0.5000000   0.7500000), wk =   0.0156250
        k(   45) = (   0.5000000   0.7500000   0.0000000), wk =   0.0156250
        k(   46) = (   0.5000000   0.7500000   0.2500000), wk =   0.0156250
        k(   47) = (   0.5000000   0.7500000   0.5000000), wk =   0.0156250
        k(   48) = (   0.5000000   0.7500000   0.7500000), wk =   0.0156250
        k(   49) = (   0.7500000   0.0000000   0.0000000), wk =   0.0156250
        k(   50) = (   0.7500000   0.0000000   0.2500000), wk =   0.0156250
        k(   51) = (   0.7500000   0.0000000   0.5000000), wk =   0.0156250
        k(   52) = (   0.7500000   0.0000000   0.7500000), wk =   0.0156250
        k(   53) = (   0.7500000   0.2500000   0.0000000), wk =   0.0156250
        k(   54) = (   0.7500000   0.2500000   0.2500000), wk =   0.0156250
        k(   55) = (   0.7500000   0.2500000   0.5000000), wk =   0.0156250
        k(   56) = (   0.7500000   0.2500000   0.7500000), wk =   0.0156250
        k(   57) = (   0.7500000   0.5000000   0.0000000), wk =   0.0156250
        k(   58) = (   0.7500000   0.5000000   0.2500000), wk =   0.0156250
        k(   59) = (   0.7500000   0.5000000   0.5000000), wk =   0.0156250
        k(   60) = (   0.7500000   0.5000000   0.7500000), wk =   0.0156250
        k(   61) = (   0.7500000   0.7500000   0.0000000), wk =   0.0156250
        k(   62) = (   0.7500000   0.7500000   0.2500000), wk =   0.0156250
        k(   63) = (   0.7500000   0.7500000   0.5000000), wk =   0.0156250
        k(   64) = (   0.7500000   0.7500000   0.7500000), wk =   0.0156250

     Dense  grid:    14963 G-vectors     FFT dimensions: (  36,  36,  36)

     Smooth grid:     3805 G-vectors     FFT dimensions: (  24,  24,  24)

     Dynamical RAM for                 wfc:       0.99 MB

     Dynamical RAM for     wfc (w. buffer):      16.76 MB

     Dynamical RAM for           str. fact:       0.23 MB

     Dynamical RAM for           local pot:       0.00 MB

     Dynamical RAM for          nlocal pot:       0.25 MB

     Dynamical RAM for                qrad:       4.70 MB

     Dynamical RAM for          rho,v,vnew:       7.01 MB

     Dynamical RAM for           G-vectors:       0.89 MB

     Dynamical RAM for          h,s,v(r/c):       0.85 MB

     Dynamical RAM for          <psi|beta>:       0.07 MB

     Dynamical RAM for                 psi:       1.97 MB

     Dynamical RAM for                hpsi:       1.97 MB

     Dynamical RAM for                spsi:       1.97 MB

     Dynamical RAM for      wfcinit/wfcrot:       1.58 MB

     Dynamical RAM for           addusdens:      35.72 MB

     Estimated static dynamical RAM per process >      33.13 MB

     Estimated max dynamical RAM per process >      68.86 MB

     Estimated total dynamical RAM >     275.43 MB

     Check: negative core charge=   -0.000085
     Generating pointlists ...
     new r_m :   0.3572 (alat units)  1.9362 (a.u.) for type    1

     The potential is recalculated from file :
     ./work/iron.save/charge-density

     Starting wfcs are   26 randomized atomic wfcs +   42 random wfcs

     Band Structure Calculation
     Davidson diagonalization with overlap

     Computing kpt #:     1  of    16 on this pool
     total cpu time spent up to now is        2.1 secs

     Computing kpt #:     2  of    16 on this pool
     total cpu time spent up to now is        2.6 secs

     Computing kpt #:     3  of    16 on this pool
     total cpu time spent up to now is        3.0 secs

     Computing kpt #:     4  of    16 on this pool
     total cpu time spent up to now is        3.5 secs

     Computing kpt #:     5  of    16 on this pool
     total cpu time spent up to now is        4.0 secs

     Computing kpt #:     6  of    16 on this pool
     total cpu time spent up to now is        4.5 secs

     Computing kpt #:     7  of    16 on this pool
     total cpu time spent up to now is        4.9 secs

     Computing kpt #:     8  of    16 on this pool
     total cpu time spent up to now is        5.4 secs

     Computing kpt #:     9  of    16 on this pool
     total cpu time spent up to now is        5.9 secs

     Computing kpt #:    10  of    16 on this pool
     total cpu time spent up to now is        6.4 secs

     Computing kpt #:    11  of    16 on this pool
     total cpu time spent up to now is        6.9 secs

     Computing kpt #:    12  of    16 on this pool
     total cpu time spent up to now is        7.4 secs

     Computing kpt #:    13  of    16 on this pool
     total cpu time spent up to now is        7.9 secs

     Computing kpt #:    14  of    16 on this pool
     total cpu time spent up to now is        8.4 secs

     Computing kpt #:    15  of    16 on this pool
     total cpu time spent up to now is        8.9 secs

     Computing kpt #:    16  of    16 on this pool
     total cpu time spent up to now is        9.4 secs

     ethr =  6.25E-11,  avg # of iterations = 22.6

     total cpu time spent up to now is        9.4 secs

     End of band structure calculation

          k = 0.0000 0.0000 0.0000 (   459 PWs)   bands (ev):

   -70.6319 -67.8607 -37.1443 -36.6872 -35.9497 -34.0237 -33.5722 -33.2139
     9.1611   9.2751  15.1983  15.2248  15.2570  16.3554  16.3639  17.1193
    17.1406  17.1717  19.1555  19.1568  41.6763  41.6764  41.6764  42.0017
    42.0017  42.0018  46.8378  46.8381  46.9993  46.9995  48.8771  48.8953
    48.9151  49.5137  49.5360  49.5385  49.5567  49.6729  49.8671  50.6110
    50.7439  50.8515  65.8950  66.1030  79.7887  79.8394  79.9008  80.4493
    80.5023  80.5491  83.8880  83.8884  84.4266  84.4271  91.8122  92.6598
   102.2942 103.2841 110.2762 110.2794 110.2835 110.5577 110.5577 110.5577
   110.7539 110.7539 110.7540 110.7555

     occupation numbers 
     1.0000   1.0000   1.0000   1.0000   1.0000   1.0000   1.0000   1.0000
     1.0000   1.0000   1.0000   1.0000   1.0000   1.0000   1.0000   1.0116
     1.0144   1.0191  -0.0000  -0.0000  -0.0000  -0.0000  -0.0000  -0.0000
    -0.0000  -0.0000  -0.0000  -0.0000  -0.0000  -0.0000  -0.0000  -0.0000
    -0.0000  -0.0000  -0.0000  -0.0000  -0.0000  -0.0000  -0.0000  -0.0000
    -0.0000  -0.0000  -0.0000  -0.0000  -0.0000  -0.0000  -0.0000  -0.0000
    -0.0000  -0.0000  -0.0000  -0.0000  -0.0000  -0.0000  -0.0000  -0.0000
    -0.0000  -0.0000  -0.0000  -0.0000  -0.0000  -0.0000  -0.0000  -0.0000
    -0.0000  -0.0000  -0.0000  -0.0000

          k = 0.0000-0.2500 0.2500 (   481 PWs)   bands (ev):

   -70.5993 -67.8247 -37.2272 -36.7757 -36.0251 -34.1202 -33.6803 -33.2898
    11.3846  11.5907  14.6934  15.0888  16.2087  16.3812  16.4267  16.5133
    16.8453  18.4357  18.8185  19.2393  32.8447  33.4382  38.2637  38.2832
    40.8698  41.0090  41.0846  41.7094  44.2302  44.7882  47.7624  47.8684
    50.7775  51.0173  54.8030  55.0190  58.7803  59.2321  59.4981  59.9973
    60.1646  60.2666  67.9265  68.0971  68.4679  68.7002  76.6260  77.1458
    82.4883  83.2627  86.6708  87.2957  88.1726  88.1838  89.1487  89.5565
    89.6750  89.9646  97.3653  97.4939  98.0583  98.7419  99.9843 100.5250
   104.1079 104.8716 105.6788 106.1295

     occupation numbers 
     1.0000   1.0000   1.0000   1.0000   1.0000   1.0000   1.0000   1.0000
     1.0000   1.0000   1.0000   1.0000   1.0000   1.0000   1.0000   1.0000
     1.0002  -0.0001  -0.0000  -0.0000  -0.0000  -0.0000  -0.0000  -0.0000
    -0.0000  -0.0000  -0.0000  -0.0000  -0.0000  -0.0000  -0.0000  -0.0000
    -0.0000  -0.0000  -0.0000  -0.0000  -0.0000  -0.0000  -0.0000  -0.0000
    -0.0000  -0.0000  -0.0000  -0.0000  -0.0000  -0.0000  -0.0000  -0.0000
    -0.0000  -0.0000  -0.0000  -0.0000  -0.0000  -0.0000  -0.0000  -0.0000
    -0.0000  -0.0000  -0.0000  -0.0000  -0.0000  -0.0000  -0.0000  -0.0000
    -0.0000  -0.0000  -0.0000  -0.0000

          k = 0.0000-0.5000 0.5000 (   476 PWs)   bands (ev):

   -70.5656 -67.7876 -37.3226 -36.8561 -36.0883 -34.2335 -33.7832 -33.3423
    12.6934  13.9449  14.1962  15.8986  16.4332  16.5395  17.7955  17.9848
    18.0215  19.0018  19.4001  20.0296  24.4540  25.8214  35.4253  35.4663
    37.2275  37.7435  40.3048  40.7719  43.9162  44.5654  51.2139  51.2289
    55.3361  55.4290  57.0342  57.6271  62.6625  63.4416  66.6104  66.7440
    69.0480  69.8024  70.6770  70.7667  71.4345  71.8931  73.9337  74.6112
    75.3066  75.8210  77.4306  77.6186  81.6412  81.6432  83.9168  84.0883
    89.8287  90.2902  90.6906  90.7588  92.5640  93.2927  95.2133  95.8933
   106.2452 106.4110 106.4675 106.5227

     occupation numbers 
     1.0000   1.0000   1.0000   1.0000   1.0000   1.0000   1.0000   1.0000
     1.0000   1.0000   1.0000   1.0000   1.0000   1.0000   0.0777  -0.0347
    -0.0304  -0.0000  -0.0000  -0.0000  -0.0000  -0.0000  -0.0000  -0.0000
    -0.0000  -0.0000  -0.0000  -0.0000  -0.0000  -0.0000  -0.0000  -0.0000
    -0.0000  -0.0000  -0.0000  -0.0000  -0.0000  -0.0000  -0.0000  -0.0000
    -0.0000  -0.0000  -0.0000  -0.0000  -0.0000  -0.0000  -0.0000  -0.0000
    -0.0000  -0.0000  -0.0000  -0.0000  -0.0000  -0.0000  -0.0000  -0.0000
    -0.0000  -0.0000  -0.0000  -0.0000  -0.0000  -0.0000  -0.0000  -0.0000
    -0.0000  -0.0000  -0.0000  -0.0000

          k = 0.0000-0.7500 0.7500 (   481 PWs)   bands (ev):

   -70.5993 -67.8247 -37.2272 -36.7757 -36.0251 -34.1202 -33.6803 -33.2898
    11.3846  11.5907  14.6934  15.0888  16.2087  16.3812  16.4267  16.5133
    16.8453  18.4357  18.8185  19.2393  32.8447  33.4382  38.2637  38.2832
    40.8698  41.0090  41.0846  41.7094  44.2302  44.7882  47.7624  47.8684
    50.7775  51.0173  54.8030  55.0190  58.7803  59.2321  59.4981  59.9973
    60.1646  60.2666  67.9265  68.0971  68.4679  68.7002  76.6260  77.1458
    82.4883  83.2627  86.6708  87.2957  88.1726  88.1838  89.1487  89.5565
    89.6750  89.9646  97.3653  97.4939  98.0583  98.7419  99.9843 100.5250
   104.1079 104.8716 105.6788 106.1295

     occupation numbers 
     1.0000   1.0000   1.0000   1.0000   1.0000   1.0000   1.0000   1.0000
     1.0000   1.0000   1.0000   1.0000   1.0000   1.0000   1.0000   1.0000
     1.0002  -0.0001  -0.0000  -0.0000  -0.0000  -0.0000  -0.0000  -0.0000
    -0.0000  -0.0000  -0.0000  -0.0000  -0.0000  -0.0000  -0.0000  -0.0000
    -0.0000  -0.0000  -0.0000  -0.0000  -0.0000  -0.0000  -0.0000  -0.0000
    -0.0000  -0.0000  -0.0000  -0.0000  -0.0000  -0.0000  -0.0000  -0.0000
    -0.0000  -0.0000  -0.0000  -0.0000  -0.0000  -0.0000  -0.0000  -0.0000
    -0.0000  -0.0000  -0.0000  -0.0000  -0.0000  -0.0000  -0.0000  -0.0000
    -0.0000  -0.0000  -0.0000  -0.0000

          k =-0.2500 0.2500 0.0000 (   481 PWs)   bands (ev):

   -70.5993 -67.8247 -37.2387 -36.7516 -36.0394 -34.1355 -33.6438 -33.3094
    11.3845  11.5907  14.6939  15.0883  16.1989  16.3935  16.4298  16.5106
    16.8422  18.4380  18.8148  19.2410  32.8445  33.4384  38.2641  38.2830
    40.8695  41.0102  41.0833  41.7093  44.2305  44.7880  47.7623  47.8685
    50.7776  51.0174  54.8030  55.0190  58.7833  59.2203  59.5095  59.9947
    60.1644  60.2667  67.9178  68.1142  68.4534  68.7065  76.6260  77.1456
    82.4885  83.2625  86.6711  87.2957  88.1726  88.1838  89.1491  89.5554
    89.6754  89.9648  97.3653  97.4938  98.0584  98.7418  99.9842 100.5252
   104.1080 104.8715 105.6788 106.1295

     occupation numbers 
     1.0000   1.0000   1.0000   1.0000   1.0000   1.0000   1.0000   1.0000
     1.0000   1.0000   1.0000   1.0000   1.0000   1.0000   1.0000   1.0000
     1.0002  -0.0001  -0.0000  -0.0000  -0.0000  -0.0000  -0.0000  -0.0000
    -0.0000  -0.0000  -0.0000  -0.0000  -0.0000  -0.0000  -0.0000  -0.0000
    -0.0000  -0.0000  -0.0000  -0.0000  -0.0000  -0.0000  -0.0000  -0.0000
    -0.0000  -0.0000  -0.0000  -0.0000  -0.0000  -0.0000  -0.0000  -0.0000
    -0.0000  -0.0000  -0.0000  -0.0000  -0.0000  -0.0000  -0.0000  -0.0000
    -0.0000  -0.0000  -0.0000  -0.0000  -0.0000  -0.0000  -0.0000  -0.0000
    -0.0000  -0.0000  -0.0000  -0.0000

          k =-0.2500 0.0000 0.2500 (   481 PWs)   bands (ev):

   -70.5993 -67.8247 -37.2272 -36.7757 -36.0251 -34.1202 -33.6803 -33.2898
    11.3846  11.5907  14.6934  15.0888  16.2087  16.3812  16.4267  16.5133
    16.8453  18.4357  18.8185  19.2393  32.8447  33.4382  38.2637  38.2832
    40.8698  41.0090  41.0846  41.7094  44.2302  44.7882  47.7624  47.8684
    50.7775  51.0173  54.8030  55.0190  58.7803  59.2321  59.4981  59.9973
    60.1646  60.2666  67.9265  68.0971  68.4679  68.7002  76.6260  77.1458
    82.4883  83.2627  86.6708  87.2957  88.1726  88.1838  89.1487  89.5565
    89.6750  89.9646  97.3653  97.4939  98.0583  98.7419  99.9843 100.5250
   104.1079 104.8716 105.6788 106.1295

     occupation numbers 
     1.0000   1.0000   1.0000   1.0000   1.0000   1.0000   1.0000   1.0000
     1.0000   1.0000   1.0000   1.0000   1.0000   1.0000   1.0000   1.0000
     1.0002  -0.0001  -0.0000  -0.0000  -0.0000  -0.0000  -0.0000  -0.0000
    -0.0000  -0.0000  -0.0000  -0.0000  -0.0000  -0.0000  -0.0000  -0.0000
    -0.0000  -0.0000  -0.0000  -0.0000  -0.0000  -0.0000  -0.0000  -0.0000
    -0.0000  -0.0000  -0.0000  -0.0000  -0.0000  -0.0000  -0.0000  -0.0000
    -0.0000  -0.0000  -0.0000  -0.0000  -0.0000  -0.0000  -0.0000  -0.0000
    -0.0000  -0.0000  -0.0000  -0.0000  -0.0000  -0.0000  -0.0000  -0.0000
    -0.0000  -0.0000  -0.0000  -0.0000

          k =-0.2500-0.2500 0.5000 (   478 PWs)   bands (ev):

   -70.5656 -67.7877 -37.3075 -36.8616 -36.0986 -34.2134 -33.7852 -33.3650
    13.5424  14.2362  14.5587  14.8544  15.8923  16.2881  16.3509  16.7491
    18.8464  19.3874  19.6684  21.3171  28.1981  28.9817  29.0431  29.6841
    36.6409  37.0820  43.3573  43.4638  46.4444  46.6782  53.3432  53.6056
    53.7653  54.1911  56.5470  57.1426  60.0582  60.2768  63.8833  64.3161
    69.1739  69.4332  70.7669  70.8626  71.1128  71.1605  73.3092  74.1135
    76.7359  77.2363  77.7441  78.0100  83.5166  84.3707  86.5627  86.8444
    87.8152  88.1330  91.9484  92.3876  95.6084  95.8917  98.3970  98.6748
   103.6575 104.0229 104.1709 104.2989

     occupation numbers 
     1.0000   1.0000   1.0000   1.0000   1.0000   1.0000   1.0000   1.0000
     1.0000   1.0000   1.0000   1.0000   1.0000   1.0000   1.0000   1.0000
    -0.0000  -0.0000  -0.0000  -0.0000  -0.0000  -0.0000  -0.0000  -0.0000
    -0.0000  -0.0000  -0.0000  -0.0000  -0.0000  -0.0000  -0.0000  -0.0000
    -0.0000  -0.0000  -0.0000  -0.0000  -0.0000  -0.0000  -0.0000  -0.0000
    -0.0000  -0.0000  -0.0000  -0.0000  -0.0000  -0.0000  -0.0000  -0.0000
    -0.0000  -0.0000  -0.0000  -0.0000  -0.0000  -0.0000  -0.0000  -0.0000
    -0.0000  -0.0000  -0.0000  -0.0000  -0.0000  -0.0000  -0.0000  -0.0000
    -0.0000  -0.0000  -0.0000  -0.0000

          k =-0.2500-0.5000 0.7500 (   478 PWs)   bands (ev):

   -70.5656 -67.7877 -37.3186 -36.8385 -36.1120 -34.2286 -33.7513 -33.3821
    13.5422  14.2366  14.5589  14.8545  15.8928  16.2698  16.3678  16.7496
    18.8451  19.3904  19.6664  21.3172  28.1979  28.9812  29.0438  29.6841
    36.6410  37.0819  43.3572  43.4638  46.4447  46.6781  53.3429  53.6067
    53.7642  54.1913  56.5469  57.1428  60.0580  60.2769  63.8833  64.3162
    69.1740  69.4332  70.7695  70.8582  71.1217  71.1535  73.3091  74.1136
    76.7357  77.2363  77.7440  78.0100  83.5168  84.3706  86.5627  86.8445
    87.8151  88.1332  91.9485  92.3875  95.6084  95.8917  98.3969  98.6748
   103.6573 104.0251 104.1677 104.3003

     occupation numbers 
     1.0000   1.0000   1.0000   1.0000   1.0000   1.0000   1.0000   1.0000
     1.0000   1.0000   1.0000   1.0000   1.0000   1.0000   1.0000   1.0000
    -0.0000  -0.0000  -0.0000  -0.0000  -0.0000  -0.0000  -0.0000  -0.0000
    -0.0000  -0.0000  -0.0000  -0.0000  -0.0000  -0.0000  -0.0000  -0.0000
    -0.0000  -0.0000  -0.0000  -0.0000  -0.0000  -0.0000  -0.0000  -0.0000
    -0.0000  -0.0000  -0.0000  -0.0000  -0.0000  -0.0000  -0.0000  -0.0000
    -0.0000  -0.0000  -0.0000  -0.0000  -0.0000  -0.0000  -0.0000  -0.0000
    -0.0000  -0.0000  -0.0000  -0.0000  -0.0000  -0.0000  -0.0000  -0.0000
    -0.0000  -0.0000  -0.0000  -0.0000

          k =-0.5000 0.5000 0.0000 (   476 PWs)   bands (ev):

   -70.5656 -67.7876 -37.3423 -36.8138 -36.1131 -34.2653 -33.7126 -33.3790
    12.6931  13.9452  14.1966  15.8955  16.4253  16.5516  17.7937  17.9849
    18.0215  18.9989  19.4046  20.0280  24.4537  25.8217  35.4249  35.4668
    37.2271  37.7436  40.3049  40.7717  43.9163  44.5652  51.2138  51.2290
    55.3362  55.4290  57.0338  57.6274  62.6624  63.4416  66.6105  66.7441
    69.0476  69.8024  70.6770  70.7667  71.4352  71.8927  73.9341  74.6111
    75.3059  75.8214  77.4302  77.6189  81.6410  81.6432  83.9170  84.0882
    89.8288  90.2906  90.6903  90.7585  92.5639  93.2926  95.2138  95.8932
   106.2450 106.4111 106.4676 106.5225

     occupation numbers 
     1.0000   1.0000   1.0000   1.0000   1.0000   1.0000   1.0000   1.0000
     1.0000   1.0000   1.0000   1.0000   1.0000   1.0000   0.0806  -0.0346
    -0.0304  -0.0000  -0.0000  -0.0000  -0.0000  -0.0000  -0.0000  -0.0000
    -0.0000  -0.0000  -0.0000  -0.0000  -0.0000  -0.0000  -0.0000  -0.0000
    -0.0000  -0.0000  -0.0000  -0.0000  -0.0000  -0.0000  -0.0000  -0.0000
    -0.0000  -0.0000  -0.0000  -0.0000  -0.0000  -0.0000  -0.0000  -0.0000
    -0.0000  -0.0000  -0.0000  -0.0000  -0.0000  -0.0000  -0.0000  -0.0000
    -0.0000  -0.0000  -0.0000  -0.0000  -0.0000  -0.0000  -0.0000  -0.0000
    -0.0000  -0.0000  -0.0000  -0.0000

          k =-0.5000 0.2500 0.2500 (   478 PWs)   bands (ev):

   -70.5656 -67.7877 -37.3186 -36.8385 -36.1120 -34.2286 -33.7513 -33.3821
    13.5422  14.2366  14.5589  14.8545  15.8928  16.2698  16.3678  16.7496
    18.8451  19.3904  19.6664  21.3172  28.1979  28.9812  29.0438  29.6841
    36.6410  37.0819  43.3572  43.4638  46.4447  46.6781  53.3429  53.6067
    53.7642  54.1913  56.5469  57.1428  60.0580  60.2769  63.8833  64.3162
    69.1740  69.4332  70.7695  70.8582  71.1217  71.1535  73.3091  74.1136
    76.7357  77.2363  77.7440  78.0100  83.5168  84.3706  86.5627  86.8445
    87.8151  88.1332  91.9485  92.3875  95.6084  95.8917  98.3969  98.6748
   103.6573 104.0251 104.1677 104.3003

     occupation numbers 
     1.0000   1.0000   1.0000   1.0000   1.0000   1.0000   1.0000   1.0000
     1.0000   1.0000   1.0000   1.0000   1.0000   1.0000   1.0000   1.0000
    -0.0000  -0.0000  -0.0000  -0.0000  -0.0000  -0.0000  -0.0000  -0.0000
    -0.0000  -0.0000  -0.0000  -0.0000  -0.0000  -0.0000  -0.0000  -0.0000
    -0.0000  -0.0000  -0.0000  -0.0000  -0.0000  -0.0000  -0.0000  -0.0000
    -0.0000  -0.0000  -0.0000  -0.0000  -0.0000  -0.0000  -0.0000  -0.0000
    -0.0000  -0.0000  -0.0000  -0.0000  -0.0000  -0.0000  -0.0000  -0.0000
    -0.0000  -0.0000  -0.0000  -0.0000  -0.0000  -0.0000  -0.0000  -0.0000
    -0.0000  -0.0000  -0.0000  -0.0000

          k =-0.5000 0.0000 0.5000 (   476 PWs)   bands (ev):

   -70.5656 -67.7876 -37.3226 -36.8561 -36.0883 -34.2335 -33.7832 -33.3423
    12.6934  13.9449  14.1962  15.8986  16.4332  16.5395  17.7955  17.9848
    18.0215  19.0018  19.4001  20.0296  24.4540  25.8214  35.4253  35.4663
    37.2275  37.7435  40.3048  40.7719  43.9162  44.5654  51.2139  51.2289
    55.3361  55.4290  57.0342  57.6271  62.6625  63.4416  66.6104  66.7440
    69.0480  69.8024  70.6770  70.7667  71.4345  71.8931  73.9337  74.6112
    75.3066  75.8210  77.4306  77.6186  81.6412  81.6432  83.9168  84.0883
    89.8287  90.2902  90.6906  90.7588  92.5640  93.2927  95.2133  95.8933
   106.2452 106.4110 106.4675 106.5227

     occupation numbers 
     1.0000   1.0000   1.0000   1.0000   1.0000   1.0000   1.0000   1.0000
     1.0000   1.0000   1.0000   1.0000   1.0000   1.0000   0.0777  -0.0347
    -0.0304  -0.0000  -0.0000  -0.0000  -0.0000  -0.0000  -0.0000  -0.0000
    -0.0000  -0.0000  -0.0000  -0.0000  -0.0000  -0.0000  -0.0000  -0.0000
    -0.0000  -0.0000  -0.0000  -0.0000  -0.0000  -0.0000  -0.0000  -0.0000
    -0.0000  -0.0000  -0.0000  -0.0000  -0.0000  -0.0000  -0.0000  -0.0000
    -0.0000  -0.0000  -0.0000  -0.0000  -0.0000  -0.0000  -0.0000  -0.0000
    -0.0000  -0.0000  -0.0000  -0.0000  -0.0000  -0.0000  -0.0000  -0.0000
    -0.0000  -0.0000  -0.0000  -0.0000

          k =-0.5000-0.2500 0.7500 (   478 PWs)   bands (ev):

   -70.5656 -67.7877 -37.3186 -36.8385 -36.1120 -34.2286 -33.7513 -33.3821
    13.5422  14.2366  14.5589  14.8545  15.8928  16.2698  16.3678  16.7496
    18.8451  19.3904  19.6664  21.3172  28.1979  28.9812  29.0438  29.6841
    36.6410  37.0819  43.3572  43.4638  46.4447  46.6781  53.3429  53.6067
    53.7642  54.1913  56.5469  57.1428  60.0580  60.2769  63.8833  64.3162
    69.1740  69.4332  70.7695  70.8582  71.1217  71.1535  73.3091  74.1136
    76.7357  77.2363  77.7440  78.0100  83.5168  84.3706  86.5627  86.8445
    87.8151  88.1332  91.9485  92.3875  95.6084  95.8917  98.3969  98.6748
   103.6573 104.0251 104.1677 104.3003

     occupation numbers 
     1.0000   1.0000   1.0000   1.0000   1.0000   1.0000   1.0000   1.0000
     1.0000   1.0000   1.0000   1.0000   1.0000   1.0000   1.0000   1.0000
    -0.0000  -0.0000  -0.0000  -0.0000  -0.0000  -0.0000  -0.0000  -0.0000
    -0.0000  -0.0000  -0.0000  -0.0000  -0.0000  -0.0000  -0.0000  -0.0000
    -0.0000  -0.0000  -0.0000  -0.0000  -0.0000  -0.0000  -0.0000  -0.0000
    -0.0000  -0.0000  -0.0000  -0.0000  -0.0000  -0.0000  -0.0000  -0.0000
    -0.0000  -0.0000  -0.0000  -0.0000  -0.0000  -0.0000  -0.0000  -0.0000
    -0.0000  -0.0000  -0.0000  -0.0000  -0.0000  -0.0000  -0.0000  -0.0000
    -0.0000  -0.0000  -0.0000  -0.0000

          k =-0.7500 0.7500 0.0000 (   481 PWs)   bands (ev):

   -70.5993 -67.8247 -37.2387 -36.7516 -36.0394 -34.1355 -33.6438 -33.3094
    11.3845  11.5907  14.6939  15.0883  16.1989  16.3935  16.4298  16.5106
    16.8422  18.4380  18.8148  19.2410  32.8445  33.4384  38.2641  38.2830
    40.8695  41.0102  41.0833  41.7093  44.2305  44.7880  47.7623  47.8685
    50.7776  51.0174  54.8030  55.0190  58.7833  59.2203  59.5095  59.9947
    60.1644  60.2667  67.9178  68.1142  68.4534  68.7065  76.6260  77.1456
    82.4885  83.2625  86.6711  87.2957  88.1726  88.1838  89.1491  89.5554
    89.6754  89.9648  97.3653  97.4938  98.0584  98.7418  99.9842 100.5252
   104.1080 104.8715 105.6788 106.1295

     occupation numbers 
     1.0000   1.0000   1.0000   1.0000   1.0000   1.0000   1.0000   1.0000
     1.0000   1.0000   1.0000   1.0000   1.0000   1.0000   1.0000   1.0000
     1.0002  -0.0001  -0.0000  -0.0000  -0.0000  -0.0000  -0.0000  -0.0000
    -0.0000  -0.0000  -0.0000  -0.0000  -0.0000  -0.0000  -0.0000  -0.0000
    -0.0000  -0.0000  -0.0000  -0.0000  -0.0000  -0.0000  -0.0000  -0.0000
    -0.0000  -0.0000  -0.0000  -0.0000  -0.0000  -0.0000  -0.0000  -0.0000
    -0.0000  -0.0000  -0.0000  -0.0000  -0.0000  -0.0000  -0.0000  -0.0000
    -0.0000  -0.0000  -0.0000  -0.0000  -0.0000  -0.0000  -0.0000  -0.0000
    -0.0000  -0.0000  -0.0000  -0.0000

          k =-0.7500 0.5000 0.2500 (   478 PWs)   bands (ev):

   -70.5656 -67.7877 -37.3186 -36.8385 -36.1120 -34.2286 -33.7513 -33.3821
    13.5422  14.2366  14.5589  14.8545  15.8928  16.2698  16.3678  16.7496
    18.8451  19.3904  19.6664  21.3172  28.1979  28.9812  29.0438  29.6841
    36.6410  37.0819  43.3572  43.4638  46.4447  46.6781  53.3429  53.6067
    53.7642  54.1913  56.5469  57.1428  60.0580  60.2769  63.8833  64.3162
    69.1740  69.4332  70.7695  70.8582  71.1217  71.1535  73.3091  74.1136
    76.7357  77.2363  77.7440  78.0100  83.5168  84.3706  86.5627  86.8445
    87.8151  88.1332  91.9485  92.3875  95.6084  95.8917  98.3969  98.6748
   103.6573 104.0251 104.1677 104.3003

     occupation numbers 
     1.0000   1.0000   1.0000   1.0000   1.0000   1.0000   1.0000   1.0000
     1.0000   1.0000   1.0000   1.0000   1.0000   1.0000   1.0000   1.0000
    -0.0000  -0.0000  -0.0000  -0.0000  -0.0000  -0.0000  -0.0000  -0.0000
    -0.0000  -0.0000  -0.0000  -0.0000  -0.0000  -0.0000  -0.0000  -0.0000
    -0.0000  -0.0000  -0.0000  -0.0000  -0.0000  -0.0000  -0.0000  -0.0000
    -0.0000  -0.0000  -0.0000  -0.0000  -0.0000  -0.0000  -0.0000  -0.0000
    -0.0000  -0.0000  -0.0000  -0.0000  -0.0000  -0.0000  -0.0000  -0.0000
    -0.0000  -0.0000  -0.0000  -0.0000  -0.0000  -0.0000  -0.0000  -0.0000
    -0.0000  -0.0000  -0.0000  -0.0000

          k =-0.7500 0.2500 0.5000 (   478 PWs)   bands (ev):

   -70.5656 -67.7877 -37.3075 -36.8616 -36.0986 -34.2134 -33.7852 -33.3650
    13.5424  14.2362  14.5587  14.8544  15.8923  16.2881  16.3509  16.7491
    18.8464  19.3874  19.6684  21.3171  28.1981  28.9817  29.0431  29.6841
    36.6409  37.0820  43.3573  43.4638  46.4444  46.6782  53.3432  53.6056
    53.7653  54.1911  56.5470  57.1426  60.0582  60.2768  63.8833  64.3161
    69.1739  69.4332  70.7669  70.8626  71.1128  71.1605  73.3092  74.1135
    76.7359  77.2363  77.7441  78.0100  83.5166  84.3707  86.5627  86.8444
    87.8152  88.1330  91.9484  92.3876  95.6084  95.8917  98.3970  98.6748
   103.6575 104.0229 104.1709 104.2989

     occupation numbers 
     1.0000   1.0000   1.0000   1.0000   1.0000   1.0000   1.0000   1.0000
     1.0000   1.0000   1.0000   1.0000   1.0000   1.0000   1.0000   1.0000
    -0.0000  -0.0000  -0.0000  -0.0000  -0.0000  -0.0000  -0.0000  -0.0000
    -0.0000  -0.0000  -0.0000  -0.0000  -0.0000  -0.0000  -0.0000  -0.0000
    -0.0000  -0.0000  -0.0000  -0.0000  -0.0000  -0.0000  -0.0000  -0.0000
    -0.0000  -0.0000  -0.0000  -0.0000  -0.0000  -0.0000  -0.0000  -0.0000
    -0.0000  -0.0000  -0.0000  -0.0000  -0.0000  -0.0000  -0.0000  -0.0000
    -0.0000  -0.0000  -0.0000  -0.0000  -0.0000  -0.0000  -0.0000  -0.0000
    -0.0000  -0.0000  -0.0000  -0.0000

          k =-0.7500 0.0000 0.7500 (   481 PWs)   bands (ev):

   -70.5993 -67.8247 -37.2272 -36.7757 -36.0251 -34.1202 -33.6803 -33.2898
    11.3846  11.5907  14.6934  15.0888  16.2087  16.3812  16.4267  16.5133
    16.8453  18.4357  18.8185  19.2393  32.8447  33.4382  38.2637  38.2832
    40.8698  41.0090  41.0846  41.7094  44.2302  44.7882  47.7624  47.8684
    50.7775  51.0173  54.8030  55.0190  58.7803  59.2321  59.4981  59.9973
    60.1646  60.2666  67.9265  68.0971  68.4679  68.7002  76.6260  77.1458
    82.4883  83.2627  86.6708  87.2957  88.1726  88.1838  89.1487  89.5565
    89.6750  89.9646  97.3653  97.4939  98.0583  98.7419  99.9843 100.5250
   104.1079 104.8716 105.6788 106.1295

     occupation numbers 
     1.0000   1.0000   1.0000   1.0000   1.0000   1.0000   1.0000   1.0000
     1.0000   1.0000   1.0000   1.0000   1.0000   1.0000   1.0000   1.0000
     1.0002  -0.0001  -0.0000  -0.0000  -0.0000  -0.0000  -0.0000  -0.0000
    -0.0000  -0.0000  -0.0000  -0.0000  -0.0000  -0.0000  -0.0000  -0.0000
    -0.0000  -0.0000  -0.0000  -0.0000  -0.0000  -0.0000  -0.0000  -0.0000
    -0.0000  -0.0000  -0.0000  -0.0000  -0.0000  -0.0000  -0.0000  -0.0000
    -0.0000  -0.0000  -0.0000  -0.0000  -0.0000  -0.0000  -0.0000  -0.0000
    -0.0000  -0.0000  -0.0000  -0.0000  -0.0000  -0.0000  -0.0000  -0.0000
    -0.0000  -0.0000  -0.0000  -0.0000

          k = 0.2500 0.0000 0.2500 (   481 PWs)   bands (ev):

   -70.5993 -67.8247 -37.2272 -36.7757 -36.0251 -34.1202 -33.6803 -33.2898
    11.3846  11.5907  14.6934  15.0888  16.2087  16.3812  16.4267  16.5133
    16.8453  18.4357  18.8185  19.2393  32.8447  33.4382  38.2637  38.2832
    40.8698  41.0090  41.0846  41.7094  44.2302  44.7882  47.7624  47.8684
    50.7775  51.0173  54.8030  55.0190  58.7803  59.2321  59.4981  59.9973
    60.1646  60.2666  67.9265  68.0971  68.4679  68.7002  76.6260  77.1458
    82.4883  83.2627  86.6708  87.2957  88.1726  88.1838  89.1487  89.5565
    89.6750  89.9646  97.3653  97.4939  98.0583  98.7419  99.9843 100.5250
   104.1079 104.8716 105.6788 106.1295

     occupation numbers 
     1.0000   1.0000   1.0000   1.0000   1.0000   1.0000   1.0000   1.0000
     1.0000   1.0000   1.0000   1.0000   1.0000   1.0000   1.0000   1.0000
     1.0002  -0.0001  -0.0000  -0.0000  -0.0000  -0.0000  -0.0000  -0.0000
    -0.0000  -0.0000  -0.0000  -0.0000  -0.0000  -0.0000  -0.0000  -0.0000
    -0.0000  -0.0000  -0.0000  -0.0000  -0.0000  -0.0000  -0.0000  -0.0000
    -0.0000  -0.0000  -0.0000  -0.0000  -0.0000  -0.0000  -0.0000  -0.0000
    -0.0000  -0.0000  -0.0000  -0.0000  -0.0000  -0.0000  -0.0000  -0.0000
    -0.0000  -0.0000  -0.0000  -0.0000  -0.0000  -0.0000  -0.0000  -0.0000
    -0.0000  -0.0000  -0.0000  -0.0000

          k = 0.2500-0.2500 0.5000 (   478 PWs)   bands (ev):

   -70.5656 -67.7877 -37.3075 -36.8616 -36.0986 -34.2134 -33.7852 -33.3650
    13.5424  14.2362  14.5587  14.8544  15.8923  16.2881  16.3509  16.7491
    18.8464  19.3874  19.6684  21.3171  28.1981  28.9817  29.0431  29.6841
    36.6409  37.0820  43.3573  43.4638  46.4444  46.6782  53.3432  53.6056
    53.7653  54.1911  56.5470  57.1426  60.0582  60.2768  63.8833  64.3161
    69.1739  69.4332  70.7669  70.8626  71.1128  71.1605  73.3092  74.1135
    76.7359  77.2363  77.7441  78.0100  83.5166  84.3707  86.5627  86.8444
    87.8152  88.1330  91.9484  92.3876  95.6084  95.8917  98.3970  98.6748
   103.6575 104.0229 104.1709 104.2989

     occupation numbers 
     1.0000   1.0000   1.0000   1.0000   1.0000   1.0000   1.0000   1.0000
     1.0000   1.0000   1.0000   1.0000   1.0000   1.0000   1.0000   1.0000
    -0.0000  -0.0000  -0.0000  -0.0000  -0.0000  -0.0000  -0.0000  -0.0000
    -0.0000  -0.0000  -0.0000  -0.0000  -0.0000  -0.0000  -0.0000  -0.0000
    -0.0000  -0.0000  -0.0000  -0.0000  -0.0000  -0.0000  -0.0000  -0.0000
    -0.0000  -0.0000  -0.0000  -0.0000  -0.0000  -0.0000  -0.0000  -0.0000
    -0.0000  -0.0000  -0.0000  -0.0000  -0.0000  -0.0000  -0.0000  -0.0000
    -0.0000  -0.0000  -0.0000  -0.0000  -0.0000  -0.0000  -0.0000  -0.0000
    -0.0000  -0.0000  -0.0000  -0.0000

          k = 0.2500-0.5000 0.7500 (   478 PWs)   bands (ev):

   -70.5656 -67.7877 -37.3186 -36.8385 -36.1120 -34.2286 -33.7513 -33.3821
    13.5422  14.2366  14.5589  14.8545  15.8928  16.2698  16.3678  16.7496
    18.8451  19.3904  19.6664  21.3172  28.1979  28.9812  29.0438  29.6841
    36.6410  37.0819  43.3572  43.4638  46.4447  46.6781  53.3429  53.6067
    53.7642  54.1913  56.5469  57.1428  60.0580  60.2769  63.8833  64.3162
    69.1740  69.4332  70.7695  70.8582  71.1217  71.1535  73.3091  74.1136
    76.7357  77.2363  77.7440  78.0100  83.5168  84.3706  86.5627  86.8445
    87.8151  88.1332  91.9485  92.3875  95.6084  95.8917  98.3969  98.6748
   103.6573 104.0251 104.1677 104.3003

     occupation numbers 
     1.0000   1.0000   1.0000   1.0000   1.0000   1.0000   1.0000   1.0000
     1.0000   1.0000   1.0000   1.0000   1.0000   1.0000   1.0000   1.0000
    -0.0000  -0.0000  -0.0000  -0.0000  -0.0000  -0.0000  -0.0000  -0.0000
    -0.0000  -0.0000  -0.0000  -0.0000  -0.0000  -0.0000  -0.0000  -0.0000
    -0.0000  -0.0000  -0.0000  -0.0000  -0.0000  -0.0000  -0.0000  -0.0000
    -0.0000  -0.0000  -0.0000  -0.0000  -0.0000  -0.0000  -0.0000  -0.0000
    -0.0000  -0.0000  -0.0000  -0.0000  -0.0000  -0.0000  -0.0000  -0.0000
    -0.0000  -0.0000  -0.0000  -0.0000  -0.0000  -0.0000  -0.0000  -0.0000
    -0.0000  -0.0000  -0.0000  -0.0000

          k = 0.2500-0.7500 1.0000 (   481 PWs)   bands (ev):

   -70.5993 -67.8247 -37.2387 -36.7516 -36.0394 -34.1355 -33.6438 -33.3094
    11.3845  11.5907  14.6939  15.0883  16.1989  16.3935  16.4298  16.5106
    16.8422  18.4380  18.8148  19.2410  32.8445  33.4384  38.2641  38.2830
    40.8695  41.0102  41.0833  41.7093  44.2305  44.7880  47.7623  47.8685
    50.7776  51.0174  54.8030  55.0190  58.7833  59.2203  59.5095  59.9947
    60.1644  60.2667  67.9178  68.1142  68.4534  68.7065  76.6260  77.1456
    82.4885  83.2625  86.6711  87.2957  88.1726  88.1838  89.1491  89.5554
    89.6754  89.9648  97.3653  97.4938  98.0584  98.7418  99.9842 100.5252
   104.1080 104.8715 105.6788 106.1295

     occupation numbers 
     1.0000   1.0000   1.0000   1.0000   1.0000   1.0000   1.0000   1.0000
     1.0000   1.0000   1.0000   1.0000   1.0000   1.0000   1.0000   1.0000
     1.0002  -0.0001  -0.0000  -0.0000  -0.0000  -0.0000  -0.0000  -0.0000
    -0.0000  -0.0000  -0.0000  -0.0000  -0.0000  -0.0000  -0.0000  -0.0000
    -0.0000  -0.0000  -0.0000  -0.0000  -0.0000  -0.0000  -0.0000  -0.0000
    -0.0000  -0.0000  -0.0000  -0.0000  -0.0000  -0.0000  -0.0000  -0.0000
    -0.0000  -0.0000  -0.0000  -0.0000  -0.0000  -0.0000  -0.0000  -0.0000
    -0.0000  -0.0000  -0.0000  -0.0000  -0.0000  -0.0000  -0.0000  -0.0000
    -0.0000  -0.0000  -0.0000  -0.0000

          k = 0.0000 0.2500 0.2500 (   481 PWs)   bands (ev):

   -70.5993 -67.8247 -37.2272 -36.7757 -36.0251 -34.1202 -33.6803 -33.2898
    11.3846  11.5907  14.6934  15.0888  16.2087  16.3812  16.4267  16.5133
    16.8453  18.4357  18.8185  19.2393  32.8447  33.4382  38.2637  38.2832
    40.8698  41.0090  41.0846  41.7094  44.2302  44.7882  47.7624  47.8684
    50.7775  51.0173  54.8030  55.0190  58.7803  59.2321  59.4981  59.9973
    60.1646  60.2666  67.9265  68.0971  68.4679  68.7002  76.6260  77.1458
    82.4883  83.2627  86.6708  87.2957  88.1726  88.1838  89.1487  89.5565
    89.6750  89.9646  97.3653  97.4939  98.0583  98.7419  99.9843 100.5250
   104.1079 104.8716 105.6788 106.1295

     occupation numbers 
     1.0000   1.0000   1.0000   1.0000   1.0000   1.0000   1.0000   1.0000
     1.0000   1.0000   1.0000   1.0000   1.0000   1.0000   1.0000   1.0000
     1.0002  -0.0001  -0.0000  -0.0000  -0.0000  -0.0000  -0.0000  -0.0000
    -0.0000  -0.0000  -0.0000  -0.0000  -0.0000  -0.0000  -0.0000  -0.0000
    -0.0000  -0.0000  -0.0000  -0.0000  -0.0000  -0.0000  -0.0000  -0.0000
    -0.0000  -0.0000  -0.0000  -0.0000  -0.0000  -0.0000  -0.0000  -0.0000
    -0.0000  -0.0000  -0.0000  -0.0000  -0.0000  -0.0000  -0.0000  -0.0000
    -0.0000  -0.0000  -0.0000  -0.0000  -0.0000  -0.0000  -0.0000  -0.0000
    -0.0000  -0.0000  -0.0000  -0.0000

          k = 0.0000 0.0000 0.5000 (   458 PWs)   bands (ev):

   -70.5692 -67.7920 -37.2690 -36.8667 -36.0812 -34.1694 -33.7830 -33.3600
    12.9153  13.4459  14.5557  15.6241  15.6871  16.3606  16.8046  17.4426
    17.5382  17.6274  18.4086  20.0040  34.0656  34.2108  34.5682  34.6465
    34.7899  35.1546  36.8776  37.2553  50.6834  50.7000  50.7923  50.9053
    51.0145  51.1563  52.6805  53.2896  57.6883  58.1949  65.2918  65.4066
    66.5361  66.5860  67.0738  67.1260  79.0530  79.4326  80.8610  81.1226
    83.6924  83.7149  84.5433  84.5630  85.5685  85.9517  86.8866  86.9558
    87.0317  87.1087  90.7217  91.3762  94.8301  95.2696  97.7972  97.8074
    97.9883  97.9965  99.1572  99.2989

     occupation numbers 
     1.0000   1.0000   1.0000   1.0000   1.0000   1.0000   1.0000   1.0000
     1.0000   1.0000   1.0000   1.0000   1.0000   1.0000   1.0001   0.9569
     0.7705   0.5108  -0.0002  -0.0000  -0.0000  -0.0000  -0.0000  -0.0000
    -0.0000  -0.0000  -0.0000  -0.0000  -0.0000  -0.0000  -0.0000  -0.0000
    -0.0000  -0.0000  -0.0000  -0.0000  -0.0000  -0.0000  -0.0000  -0.0000
    -0.0000  -0.0000  -0.0000  -0.0000  -0.0000  -0.0000  -0.0000  -0.0000
    -0.0000  -0.0000  -0.0000  -0.0000  -0.0000  -0.0000  -0.0000  -0.0000
    -0.0000  -0.0000  -0.0000  -0.0000  -0.0000  -0.0000  -0.0000  -0.0000
    -0.0000  -0.0000  -0.0000  -0.0000

          k = 0.0000-0.2500 0.7500 (   478 PWs)   bands (ev):

   -70.5408 -67.7605 -37.3529 -36.9045 -36.1604 -34.2642 -33.8277 -33.4406
    13.3793  13.8836  15.0827  15.5859  15.6135  16.1796  17.4396  17.6706
    18.1965  19.8820  22.4384  23.4332  25.0176  26.0725  30.9267  31.4186
    34.1614  34.7952  39.8024  40.1245  44.2278  45.0432  48.7136  49.0827
    52.1554  52.5439  62.8334  63.1327  65.5635  65.8293  67.7514  68.4023
    69.6318  69.9221  71.9269  72.0656  75.9944  76.5599  78.4933  79.0386
    80.4514  80.9378  82.7582  82.9447  83.5331  84.0355  86.9799  87.1159
    87.4747  87.5823  88.2075  88.7603  91.4162  91.7267  92.9698  93.2621
    97.0660  97.6316  99.8425 100.6098

     occupation numbers 
     1.0000   1.0000   1.0000   1.0000   1.0000   1.0000   1.0000   1.0000
     1.0000   1.0000   1.0000   1.0000   1.0000   1.0000   0.9608   0.3777
    -0.0061  -0.0000  -0.0000  -0.0000  -0.0000  -0.0000  -0.0000  -0.0000
    -0.0000  -0.0000  -0.0000  -0.0000  -0.0000  -0.0000  -0.0000  -0.0000
    -0.0000  -0.0000  -0.0000  -0.0000  -0.0000  -0.0000  -0.0000  -0.0000
    -0.0000  -0.0000  -0.0000  -0.0000  -0.0000  -0.0000  -0.0000  -0.0000
    -0.0000  -0.0000  -0.0000  -0.0000  -0.0000  -0.0000  -0.0000  -0.0000
    -0.0000  -0.0000  -0.0000  -0.0000  -0.0000  -0.0000  -0.0000  -0.0000
    -0.0000  -0.0000  -0.0000  -0.0000

          k = 0.0000-0.5000 1.0000 (   458 PWs)   bands (ev):

   -70.5692 -67.7920 -37.2945 -36.8148 -36.1117 -34.1963 -33.7172 -33.3948
    12.9152  13.4460  14.5560  15.6540  15.6559  16.3534  16.8118  17.4840
    17.5069  17.6185  18.4075  20.0047  34.1289  34.1295  34.5684  34.7259
    34.7277  35.1547  36.8781  37.2552  50.6994  50.7251  50.7257  50.9724
    50.9727  51.1562  52.6803  53.2898  57.6885  58.1949  65.2919  65.4064
    66.5596  66.5599  67.1011  67.1013  79.0530  79.4326  80.8606  81.1228
    83.7034  83.7036  84.5533  84.5533  85.5688  85.9514  86.9128  86.9129
    87.0786  87.0787  90.7215  91.3766  94.8303  95.2695  97.8020  97.8021
    97.9923  97.9925  99.1566  99.2993

     occupation numbers 
     1.0000   1.0000   1.0000   1.0000   1.0000   1.0000   1.0000   1.0000
     1.0000   1.0000   1.0000   1.0000   1.0000   1.0000   1.0001   0.8910
     0.8446   0.5382  -0.0002  -0.0000  -0.0000  -0.0000  -0.0000  -0.0000
    -0.0000  -0.0000  -0.0000  -0.0000  -0.0000  -0.0000  -0.0000  -0.0000
    -0.0000  -0.0000  -0.0000  -0.0000  -0.0000  -0.0000  -0.0000  -0.0000
    -0.0000  -0.0000  -0.0000  -0.0000  -0.0000  -0.0000  -0.0000  -0.0000
    -0.0000  -0.0000  -0.0000  -0.0000  -0.0000  -0.0000  -0.0000  -0.0000
    -0.0000  -0.0000  -0.0000  -0.0000  -0.0000  -0.0000  -0.0000  -0.0000
    -0.0000  -0.0000  -0.0000  -0.0000

          k =-0.2500 0.5000 0.2500 (   478 PWs)   bands (ev):

   -70.5656 -67.7877 -37.3186 -36.8385 -36.1120 -34.2286 -33.7513 -33.3821
    13.5422  14.2366  14.5589  14.8545  15.8928  16.2698  16.3678  16.7496
    18.8451  19.3904  19.6664  21.3172  28.1979  28.9812  29.0438  29.6841
    36.6410  37.0819  43.3572  43.4638  46.4447  46.6781  53.3429  53.6067
    53.7642  54.1913  56.5469  57.1428  60.0580  60.2769  63.8833  64.3162
    69.1740  69.4332  70.7695  70.8582  71.1217  71.1535  73.3091  74.1136
    76.7357  77.2363  77.7440  78.0100  83.5168  84.3706  86.5627  86.8445
    87.8151  88.1332  91.9485  92.3875  95.6084  95.8917  98.3969  98.6748
   103.6573 104.0251 104.1677 104.3003

     occupation numbers 
     1.0000   1.0000   1.0000   1.0000   1.0000   1.0000   1.0000   1.0000
     1.0000   1.0000   1.0000   1.0000   1.0000   1.0000   1.0000   1.0000
    -0.0000  -0.0000  -0.0000  -0.0000  -0.0000  -0.0000  -0.0000  -0.0000
    -0.0000  -0.0000  -0.0000  -0.0000  -0.0000  -0.0000  -0.0000  -0.0000
    -0.0000  -0.0000  -0.0000  -0.0000  -0.0000  -0.0000  -0.0000  -0.0000
    -0.0000  -0.0000  -0.0000  -0.0000  -0.0000  -0.0000  -0.0000  -0.0000
    -0.0000  -0.0000  -0.0000  -0.0000  -0.0000  -0.0000  -0.0000  -0.0000
    -0.0000  -0.0000  -0.0000  -0.0000  -0.0000  -0.0000  -0.0000  -0.0000
    -0.0000  -0.0000  -0.0000  -0.0000

          k =-0.2500 0.2500 0.5000 (   478 PWs)   bands (ev):

   -70.5656 -67.7877 -37.3075 -36.8616 -36.0986 -34.2134 -33.7852 -33.3650
    13.5424  14.2362  14.5587  14.8544  15.8923  16.2881  16.3509  16.7491
    18.8464  19.3874  19.6684  21.3171  28.1981  28.9817  29.0431  29.6841
    36.6409  37.0820  43.3573  43.4638  46.4444  46.6782  53.3432  53.6056
    53.7653  54.1911  56.5470  57.1426  60.0582  60.2768  63.8833  64.3161
    69.1739  69.4332  70.7669  70.8626  71.1128  71.1605  73.3092  74.1135
    76.7359  77.2363  77.7441  78.0100  83.5166  84.3707  86.5627  86.8444
    87.8152  88.1330  91.9484  92.3876  95.6084  95.8917  98.3970  98.6748
   103.6575 104.0229 104.1709 104.2989

     occupation numbers 
     1.0000   1.0000   1.0000   1.0000   1.0000   1.0000   1.0000   1.0000
     1.0000   1.0000   1.0000   1.0000   1.0000   1.0000   1.0000   1.0000
    -0.0000  -0.0000  -0.0000  -0.0000  -0.0000  -0.0000  -0.0000  -0.0000
    -0.0000  -0.0000  -0.0000  -0.0000  -0.0000  -0.0000  -0.0000  -0.0000
    -0.0000  -0.0000  -0.0000  -0.0000  -0.0000  -0.0000  -0.0000  -0.0000
    -0.0000  -0.0000  -0.0000  -0.0000  -0.0000  -0.0000  -0.0000  -0.0000
    -0.0000  -0.0000  -0.0000  -0.0000  -0.0000  -0.0000  -0.0000  -0.0000
    -0.0000  -0.0000  -0.0000  -0.0000  -0.0000  -0.0000  -0.0000  -0.0000
    -0.0000  -0.0000  -0.0000  -0.0000

          k =-0.2500 0.0000 0.7500 (   478 PWs)   bands (ev):

   -70.5408 -67.7605 -37.3529 -36.9045 -36.1604 -34.2642 -33.8277 -33.4406
    13.3793  13.8836  15.0827  15.5859  15.6135  16.1796  17.4396  17.6706
    18.1965  19.8820  22.4384  23.4332  25.0176  26.0725  30.9267  31.4186
    34.1614  34.7952  39.8024  40.1245  44.2278  45.0432  48.7136  49.0827
    52.1554  52.5439  62.8334  63.1327  65.5635  65.8293  67.7514  68.4023
    69.6318  69.9221  71.9269  72.0656  75.9944  76.5599  78.4933  79.0386
    80.4514  80.9378  82.7582  82.9447  83.5331  84.0355  86.9799  87.1159
    87.4747  87.5823  88.2075  88.7603  91.4162  91.7267  92.9698  93.2621
    97.0660  97.6316  99.8425 100.6098

     occupation numbers 
     1.0000   1.0000   1.0000   1.0000   1.0000   1.0000   1.0000   1.0000
     1.0000   1.0000   1.0000   1.0000   1.0000   1.0000   0.9608   0.3777
    -0.0061  -0.0000  -0.0000  -0.0000  -0.0000  -0.0000  -0.0000  -0.0000
    -0.0000  -0.0000  -0.0000  -0.0000  -0.0000  -0.0000  -0.0000  -0.0000
    -0.0000  -0.0000  -0.0000  -0.0000  -0.0000  -0.0000  -0.0000  -0.0000
    -0.0000  -0.0000  -0.0000  -0.0000  -0.0000  -0.0000  -0.0000  -0.0000
    -0.0000  -0.0000  -0.0000  -0.0000  -0.0000  -0.0000  -0.0000  -0.0000
    -0.0000  -0.0000  -0.0000  -0.0000  -0.0000  -0.0000  -0.0000  -0.0000
    -0.0000  -0.0000  -0.0000  -0.0000

          k =-0.2500-0.2500 1.0000 (   478 PWs)   bands (ev):

   -70.5408 -67.7605 -37.3642 -36.8807 -36.1744 -34.2793 -33.7919 -33.4598
    13.3791  13.8839  15.0818  15.5849  15.6183  16.1751  17.4457  17.6670
    18.1957  19.8817  22.4385  23.4335  25.0175  26.0726  30.9266  31.4185
    34.1616  34.7950  39.8025  40.1246  44.2277  45.0432  48.7135  49.0827
    52.1556  52.5439  62.8332  63.1327  65.5634  65.8294  67.7516  68.4023
    69.6322  69.9220  71.9269  72.0657  75.9942  76.5600  78.4932  79.0386
    80.4509  80.9381  82.7578  82.9449  83.5330  84.0356  86.9798  87.1158
    87.4753  87.5819  88.2075  88.7602  91.4165  91.7266  92.9698  93.2621
    97.0665  97.6310  99.8430 100.6098

     occupation numbers 
     1.0000   1.0000   1.0000   1.0000   1.0000   1.0000   1.0000   1.0000
     1.0000   1.0000   1.0000   1.0000   1.0000   1.0000   0.9527   0.3886
    -0.0062  -0.0000  -0.0000  -0.0000  -0.0000  -0.0000  -0.0000  -0.0000
    -0.0000  -0.0000  -0.0000  -0.0000  -0.0000  -0.0000  -0.0000  -0.0000
    -0.0000  -0.0000  -0.0000  -0.0000  -0.0000  -0.0000  -0.0000  -0.0000
    -0.0000  -0.0000  -0.0000  -0.0000  -0.0000  -0.0000  -0.0000  -0.0000
    -0.0000  -0.0000  -0.0000  -0.0000  -0.0000  -0.0000  -0.0000  -0.0000
    -0.0000  -0.0000  -0.0000  -0.0000  -0.0000  -0.0000  -0.0000  -0.0000
    -0.0000  -0.0000  -0.0000  -0.0000

          k =-0.5000 0.7500 0.2500 (   478 PWs)   bands (ev):

   -70.5656 -67.7877 -37.3186 -36.8385 -36.1120 -34.2286 -33.7513 -33.3821
    13.5422  14.2366  14.5589  14.8545  15.8928  16.2698  16.3678  16.7496
    18.8451  19.3904  19.6664  21.3172  28.1979  28.9812  29.0438  29.6841
    36.6410  37.0819  43.3572  43.4638  46.4447  46.6781  53.3429  53.6067
    53.7642  54.1913  56.5469  57.1428  60.0580  60.2769  63.8833  64.3162
    69.1740  69.4332  70.7695  70.8582  71.1217  71.1535  73.3091  74.1136
    76.7357  77.2363  77.7440  78.0100  83.5168  84.3706  86.5627  86.8445
    87.8151  88.1332  91.9485  92.3875  95.6084  95.8917  98.3969  98.6748
   103.6573 104.0251 104.1677 104.3003

     occupation numbers 
     1.0000   1.0000   1.0000   1.0000   1.0000   1.0000   1.0000   1.0000
     1.0000   1.0000   1.0000   1.0000   1.0000   1.0000   1.0000   1.0000
    -0.0000  -0.0000  -0.0000  -0.0000  -0.0000  -0.0000  -0.0000  -0.0000
    -0.0000  -0.0000  -0.0000  -0.0000  -0.0000  -0.0000  -0.0000  -0.0000
    -0.0000  -0.0000  -0.0000  -0.0000  -0.0000  -0.0000  -0.0000  -0.0000
    -0.0000  -0.0000  -0.0000  -0.0000  -0.0000  -0.0000  -0.0000  -0.0000
    -0.0000  -0.0000  -0.0000  -0.0000  -0.0000  -0.0000  -0.0000  -0.0000
    -0.0000  -0.0000  -0.0000  -0.0000  -0.0000  -0.0000  -0.0000  -0.0000
    -0.0000  -0.0000  -0.0000  -0.0000

          k =-0.5000 0.5000 0.5000 (   484 PWs)   bands (ev):

   -70.5615 -67.7831 -37.3156 -36.8630 -36.1347 -34.2215 -33.7753 -33.4211
    14.3299  14.3400  14.3515  15.7073  15.7135  15.7149  16.5759  16.5767
    19.4461  19.4467  25.8192  25.8491  25.8815  26.6752  26.6975  26.7172
    27.7730  28.4740  55.3326  55.3326  55.3326  55.6327  55.6327  55.6328
    56.1808  56.1843  56.1883  56.3502  56.3549  56.3592  62.0550  62.0553
    62.9257  62.9259  65.8703  65.9708  66.1025  66.8298  66.9287  67.0119
    72.9813  73.7817  88.5438  88.5438  88.5441  88.8216  88.8217  88.8217
    93.2416  93.2417  93.5544  93.5545  94.6107  94.6185  94.6347  94.6578
    94.6682  94.6749 102.7322 102.8048

     occupation numbers 
     1.0000   1.0000   1.0000   1.0000   1.0000   1.0000   1.0000   1.0000
     1.0000   1.0000   1.0000   1.0000   1.0000   1.0000   1.0000   1.0000
    -0.0000  -0.0000  -0.0000  -0.0000  -0.0000  -0.0000  -0.0000  -0.0000
    -0.0000  -0.0000  -0.0000  -0.0000  -0.0000  -0.0000  -0.0000  -0.0000
    -0.0000  -0.0000  -0.0000  -0.0000  -0.0000  -0.0000  -0.0000  -0.0000
    -0.0000  -0.0000  -0.0000  -0.0000  -0.0000  -0.0000  -0.0000  -0.0000
    -0.0000  -0.0000  -0.0000  -0.0000  -0.0000  -0.0000  -0.0000  -0.0000
    -0.0000  -0.0000  -0.0000  -0.0000  -0.0000  -0.0000  -0.0000  -0.0000
    -0.0000  -0.0000  -0.0000  -0.0000

          k =-0.5000 0.2500 0.7500 (   478 PWs)   bands (ev):

   -70.5656 -67.7877 -37.3186 -36.8385 -36.1120 -34.2286 -33.7513 -33.3821
    13.5422  14.2366  14.5589  14.8545  15.8928  16.2698  16.3678  16.7496
    18.8451  19.3904  19.6664  21.3172  28.1979  28.9812  29.0438  29.6841
    36.6410  37.0819  43.3572  43.4638  46.4447  46.6781  53.3429  53.6067
    53.7642  54.1913  56.5469  57.1428  60.0580  60.2769  63.8833  64.3162
    69.1740  69.4332  70.7695  70.8582  71.1217  71.1535  73.3091  74.1136
    76.7357  77.2363  77.7440  78.0100  83.5168  84.3706  86.5627  86.8445
    87.8151  88.1332  91.9485  92.3875  95.6084  95.8917  98.3969  98.6748
   103.6573 104.0251 104.1677 104.3003

     occupation numbers 
     1.0000   1.0000   1.0000   1.0000   1.0000   1.0000   1.0000   1.0000
     1.0000   1.0000   1.0000   1.0000   1.0000   1.0000   1.0000   1.0000
    -0.0000  -0.0000  -0.0000  -0.0000  -0.0000  -0.0000  -0.0000  -0.0000
    -0.0000  -0.0000  -0.0000  -0.0000  -0.0000  -0.0000  -0.0000  -0.0000
    -0.0000  -0.0000  -0.0000  -0.0000  -0.0000  -0.0000  -0.0000  -0.0000
    -0.0000  -0.0000  -0.0000  -0.0000  -0.0000  -0.0000  -0.0000  -0.0000
    -0.0000  -0.0000  -0.0000  -0.0000  -0.0000  -0.0000  -0.0000  -0.0000
    -0.0000  -0.0000  -0.0000  -0.0000  -0.0000  -0.0000  -0.0000  -0.0000
    -0.0000  -0.0000  -0.0000  -0.0000

          k =-0.5000 0.0000 1.0000 (   458 PWs)   bands (ev):

   -70.5692 -67.7920 -37.2945 -36.8148 -36.1117 -34.1963 -33.7172 -33.3948
    12.9152  13.4460  14.5560  15.6540  15.6559  16.3534  16.8118  17.4840
    17.5069  17.6185  18.4075  20.0047  34.1289  34.1295  34.5684  34.7259
    34.7277  35.1547  36.8781  37.2552  50.6994  50.7251  50.7257  50.9724
    50.9727  51.1562  52.6803  53.2898  57.6885  58.1949  65.2919  65.4064
    66.5596  66.5599  67.1011  67.1013  79.0530  79.4326  80.8606  81.1228
    83.7034  83.7036  84.5533  84.5533  85.5688  85.9514  86.9128  86.9129
    87.0786  87.0787  90.7215  91.3766  94.8303  95.2695  97.8020  97.8021
    97.9923  97.9925  99.1566  99.2993

     occupation numbers 
     1.0000   1.0000   1.0000   1.0000   1.0000   1.0000   1.0000   1.0000
     1.0000   1.0000   1.0000   1.0000   1.0000   1.0000   1.0001   0.8910
     0.8446   0.5382  -0.0002  -0.0000  -0.0000  -0.0000  -0.0000  -0.0000
    -0.0000  -0.0000  -0.0000  -0.0000  -0.0000  -0.0000  -0.0000  -0.0000
    -0.0000  -0.0000  -0.0000  -0.0000  -0.0000  -0.0000  -0.0000  -0.0000
    -0.0000  -0.0000  -0.0000  -0.0000  -0.0000  -0.0000  -0.0000  -0.0000
    -0.0000  -0.0000  -0.0000  -0.0000  -0.0000  -0.0000  -0.0000  -0.0000
    -0.0000  -0.0000  -0.0000  -0.0000  -0.0000  -0.0000  -0.0000  -0.0000
    -0.0000  -0.0000  -0.0000  -0.0000

          k = 0.5000 0.0000 0.5000 (   476 PWs)   bands (ev):

   -70.5656 -67.7876 -37.3226 -36.8561 -36.0883 -34.2335 -33.7832 -33.3423
    12.6934  13.9449  14.1962  15.8986  16.4332  16.5395  17.7955  17.9848
    18.0215  19.0018  19.4001  20.0296  24.4540  25.8214  35.4253  35.4663
    37.2275  37.7435  40.3048  40.7719  43.9162  44.5654  51.2139  51.2289
    55.3361  55.4290  57.0342  57.6271  62.6625  63.4416  66.6104  66.7440
    69.0480  69.8024  70.6770  70.7667  71.4345  71.8931  73.9337  74.6112
    75.3066  75.8210  77.4306  77.6186  81.6412  81.6432  83.9168  84.0883
    89.8287  90.2902  90.6906  90.7588  92.5640  93.2927  95.2133  95.8933
   106.2452 106.4110 106.4675 106.5227

     occupation numbers 
     1.0000   1.0000   1.0000   1.0000   1.0000   1.0000   1.0000   1.0000
     1.0000   1.0000   1.0000   1.0000   1.0000   1.0000   0.0777  -0.0347
    -0.0304  -0.0000  -0.0000  -0.0000  -0.0000  -0.0000  -0.0000  -0.0000
    -0.0000  -0.0000  -0.0000  -0.0000  -0.0000  -0.0000  -0.0000  -0.0000
    -0.0000  -0.0000  -0.0000  -0.0000  -0.0000  -0.0000  -0.0000  -0.0000
    -0.0000  -0.0000  -0.0000  -0.0000  -0.0000  -0.0000  -0.0000  -0.0000
    -0.0000  -0.0000  -0.0000  -0.0000  -0.0000  -0.0000  -0.0000  -0.0000
    -0.0000  -0.0000  -0.0000  -0.0000  -0.0000  -0.0000  -0.0000  -0.0000
    -0.0000  -0.0000  -0.0000  -0.0000

          k = 0.5000-0.2500 0.7500 (   478 PWs)   bands (ev):

   -70.5656 -67.7877 -37.3186 -36.8385 -36.1120 -34.2286 -33.7513 -33.3821
    13.5422  14.2366  14.5589  14.8545  15.8928  16.2698  16.3678  16.7496
    18.8451  19.3904  19.6664  21.3172  28.1979  28.9812  29.0438  29.6841
    36.6410  37.0819  43.3572  43.4638  46.4447  46.6781  53.3429  53.6067
    53.7642  54.1913  56.5469  57.1428  60.0580  60.2769  63.8833  64.3162
    69.1740  69.4332  70.7695  70.8582  71.1217  71.1535  73.3091  74.1136
    76.7357  77.2363  77.7440  78.0100  83.5168  84.3706  86.5627  86.8445
    87.8151  88.1332  91.9485  92.3875  95.6084  95.8917  98.3969  98.6748
   103.6573 104.0251 104.1677 104.3003

     occupation numbers 
     1.0000   1.0000   1.0000   1.0000   1.0000   1.0000   1.0000   1.0000
     1.0000   1.0000   1.0000   1.0000   1.0000   1.0000   1.0000   1.0000
    -0.0000  -0.0000  -0.0000  -0.0000  -0.0000  -0.0000  -0.0000  -0.0000
    -0.0000  -0.0000  -0.0000  -0.0000  -0.0000  -0.0000  -0.0000  -0.0000
    -0.0000  -0.0000  -0.0000  -0.0000  -0.0000  -0.0000  -0.0000  -0.0000
    -0.0000  -0.0000  -0.0000  -0.0000  -0.0000  -0.0000  -0.0000  -0.0000
    -0.0000  -0.0000  -0.0000  -0.0000  -0.0000  -0.0000  -0.0000  -0.0000
    -0.0000  -0.0000  -0.0000  -0.0000  -0.0000  -0.0000  -0.0000  -0.0000
    -0.0000  -0.0000  -0.0000  -0.0000

          k = 0.5000-0.5000 1.0000 (   476 PWs)   bands (ev):

   -70.5656 -67.7876 -37.3423 -36.8138 -36.1131 -34.2653 -33.7126 -33.3790
    12.6931  13.9452  14.1966  15.8955  16.4253  16.5516  17.7937  17.9849
    18.0215  18.9989  19.4046  20.0280  24.4537  25.8217  35.4249  35.4668
    37.2271  37.7436  40.3049  40.7717  43.9163  44.5652  51.2138  51.2290
    55.3362  55.4290  57.0338  57.6274  62.6624  63.4416  66.6105  66.7441
    69.0476  69.8024  70.6770  70.7667  71.4352  71.8927  73.9341  74.6111
    75.3059  75.8214  77.4302  77.6189  81.6410  81.6432  83.9170  84.0882
    89.8288  90.2906  90.6903  90.7585  92.5639  93.2926  95.2138  95.8932
   106.2450 106.4111 106.4676 106.5225

     occupation numbers 
     1.0000   1.0000   1.0000   1.0000   1.0000   1.0000   1.0000   1.0000
     1.0000   1.0000   1.0000   1.0000   1.0000   1.0000   0.0806  -0.0346
    -0.0304  -0.0000  -0.0000  -0.0000  -0.0000  -0.0000  -0.0000  -0.0000
    -0.0000  -0.0000  -0.0000  -0.0000  -0.0000  -0.0000  -0.0000  -0.0000
    -0.0000  -0.0000  -0.0000  -0.0000  -0.0000  -0.0000  -0.0000  -0.0000
    -0.0000  -0.0000  -0.0000  -0.0000  -0.0000  -0.0000  -0.0000  -0.0000
    -0.0000  -0.0000  -0.0000  -0.0000  -0.0000  -0.0000  -0.0000  -0.0000
    -0.0000  -0.0000  -0.0000  -0.0000  -0.0000  -0.0000  -0.0000  -0.0000
    -0.0000  -0.0000  -0.0000  -0.0000

          k = 0.5000-0.7500 1.2500 (   478 PWs)   bands (ev):

   -70.5656 -67.7877 -37.3186 -36.8385 -36.1120 -34.2286 -33.7513 -33.3821
    13.5422  14.2366  14.5589  14.8545  15.8928  16.2698  16.3678  16.7496
    18.8451  19.3904  19.6664  21.3172  28.1979  28.9812  29.0438  29.6841
    36.6410  37.0819  43.3572  43.4638  46.4447  46.6781  53.3429  53.6067
    53.7642  54.1913  56.5469  57.1428  60.0580  60.2769  63.8833  64.3162
    69.1740  69.4332  70.7695  70.8582  71.1217  71.1535  73.3091  74.1136
    76.7357  77.2363  77.7440  78.0100  83.5168  84.3706  86.5627  86.8445
    87.8151  88.1332  91.9485  92.3875  95.6084  95.8917  98.3969  98.6748
   103.6573 104.0251 104.1677 104.3003

     occupation numbers 
     1.0000   1.0000   1.0000   1.0000   1.0000   1.0000   1.0000   1.0000
     1.0000   1.0000   1.0000   1.0000   1.0000   1.0000   1.0000   1.0000
    -0.0000  -0.0000  -0.0000  -0.0000  -0.0000  -0.0000  -0.0000  -0.0000
    -0.0000  -0.0000  -0.0000  -0.0000  -0.0000  -0.0000  -0.0000  -0.0000
    -0.0000  -0.0000  -0.0000  -0.0000  -0.0000  -0.0000  -0.0000  -0.0000
    -0.0000  -0.0000  -0.0000  -0.0000  -0.0000  -0.0000  -0.0000  -0.0000
    -0.0000  -0.0000  -0.0000  -0.0000  -0.0000  -0.0000  -0.0000  -0.0000
    -0.0000  -0.0000  -0.0000  -0.0000  -0.0000  -0.0000  -0.0000  -0.0000
    -0.0000  -0.0000  -0.0000  -0.0000

          k = 0.2500 0.2500 0.5000 (   478 PWs)   bands (ev):

   -70.5656 -67.7877 -37.3075 -36.8616 -36.0986 -34.2134 -33.7852 -33.3650
    13.5424  14.2362  14.5587  14.8544  15.8923  16.2881  16.3509  16.7491
    18.8464  19.3874  19.6684  21.3171  28.1981  28.9817  29.0431  29.6841
    36.6409  37.0820  43.3573  43.4638  46.4444  46.6782  53.3432  53.6056
    53.7653  54.1911  56.5470  57.1426  60.0582  60.2768  63.8833  64.3161
    69.1739  69.4332  70.7669  70.8626  71.1128  71.1605  73.3092  74.1135
    76.7359  77.2363  77.7441  78.0100  83.5166  84.3707  86.5627  86.8444
    87.8152  88.1330  91.9484  92.3876  95.6084  95.8917  98.3970  98.6748
   103.6575 104.0229 104.1709 104.2989

     occupation numbers 
     1.0000   1.0000   1.0000   1.0000   1.0000   1.0000   1.0000   1.0000
     1.0000   1.0000   1.0000   1.0000   1.0000   1.0000   1.0000   1.0000
    -0.0000  -0.0000  -0.0000  -0.0000  -0.0000  -0.0000  -0.0000  -0.0000
    -0.0000  -0.0000  -0.0000  -0.0000  -0.0000  -0.0000  -0.0000  -0.0000
    -0.0000  -0.0000  -0.0000  -0.0000  -0.0000  -0.0000  -0.0000  -0.0000
    -0.0000  -0.0000  -0.0000  -0.0000  -0.0000  -0.0000  -0.0000  -0.0000
    -0.0000  -0.0000  -0.0000  -0.0000  -0.0000  -0.0000  -0.0000  -0.0000
    -0.0000  -0.0000  -0.0000  -0.0000  -0.0000  -0.0000  -0.0000  -0.0000
    -0.0000  -0.0000  -0.0000  -0.0000

          k = 0.2500 0.0000 0.7500 (   478 PWs)   bands (ev):

   -70.5408 -67.7605 -37.3529 -36.9045 -36.1604 -34.2642 -33.8277 -33.4406
    13.3793  13.8836  15.0827  15.5859  15.6135  16.1796  17.4396  17.6706
    18.1965  19.8820  22.4384  23.4332  25.0176  26.0725  30.9267  31.4186
    34.1614  34.7952  39.8024  40.1245  44.2278  45.0432  48.7136  49.0827
    52.1554  52.5439  62.8334  63.1327  65.5635  65.8293  67.7514  68.4023
    69.6318  69.9221  71.9269  72.0656  75.9944  76.5599  78.4933  79.0386
    80.4514  80.9378  82.7582  82.9447  83.5331  84.0355  86.9799  87.1159
    87.4747  87.5823  88.2075  88.7603  91.4162  91.7267  92.9698  93.2621
    97.0660  97.6316  99.8425 100.6098

     occupation numbers 
     1.0000   1.0000   1.0000   1.0000   1.0000   1.0000   1.0000   1.0000
     1.0000   1.0000   1.0000   1.0000   1.0000   1.0000   0.9608   0.3777
    -0.0061  -0.0000  -0.0000  -0.0000  -0.0000  -0.0000  -0.0000  -0.0000
    -0.0000  -0.0000  -0.0000  -0.0000  -0.0000  -0.0000  -0.0000  -0.0000
    -0.0000  -0.0000  -0.0000  -0.0000  -0.0000  -0.0000  -0.0000  -0.0000
    -0.0000  -0.0000  -0.0000  -0.0000  -0.0000  -0.0000  -0.0000  -0.0000
    -0.0000  -0.0000  -0.0000  -0.0000  -0.0000  -0.0000  -0.0000  -0.0000
    -0.0000  -0.0000  -0.0000  -0.0000  -0.0000  -0.0000  -0.0000  -0.0000
    -0.0000  -0.0000  -0.0000  -0.0000

          k = 0.2500-0.2500 1.0000 (   478 PWs)   bands (ev):

   -70.5408 -67.7605 -37.3642 -36.8807 -36.1744 -34.2793 -33.7919 -33.4598
    13.3791  13.8839  15.0818  15.5849  15.6183  16.1751  17.4457  17.6670
    18.1957  19.8817  22.4385  23.4335  25.0175  26.0726  30.9266  31.4185
    34.1616  34.7950  39.8025  40.1246  44.2277  45.0432  48.7135  49.0827
    52.1556  52.5439  62.8332  63.1327  65.5634  65.8294  67.7516  68.4023
    69.6322  69.9220  71.9269  72.0657  75.9942  76.5600  78.4932  79.0386
    80.4509  80.9381  82.7578  82.9449  83.5330  84.0356  86.9798  87.1158
    87.4753  87.5819  88.2075  88.7602  91.4165  91.7266  92.9698  93.2621
    97.0665  97.6310  99.8430 100.6098

     occupation numbers 
     1.0000   1.0000   1.0000   1.0000   1.0000   1.0000   1.0000   1.0000
     1.0000   1.0000   1.0000   1.0000   1.0000   1.0000   0.9527   0.3886
    -0.0062  -0.0000  -0.0000  -0.0000  -0.0000  -0.0000  -0.0000  -0.0000
    -0.0000  -0.0000  -0.0000  -0.0000  -0.0000  -0.0000  -0.0000  -0.0000
    -0.0000  -0.0000  -0.0000  -0.0000  -0.0000  -0.0000  -0.0000  -0.0000
    -0.0000  -0.0000  -0.0000  -0.0000  -0.0000  -0.0000  -0.0000  -0.0000
    -0.0000  -0.0000  -0.0000  -0.0000  -0.0000  -0.0000  -0.0000  -0.0000
    -0.0000  -0.0000  -0.0000  -0.0000  -0.0000  -0.0000  -0.0000  -0.0000
    -0.0000  -0.0000  -0.0000  -0.0000

          k = 0.2500-0.5000 1.2500 (   478 PWs)   bands (ev):

   -70.5656 -67.7877 -37.3186 -36.8385 -36.1120 -34.2286 -33.7513 -33.3821
    13.5422  14.2366  14.5589  14.8545  15.8928  16.2698  16.3678  16.7496
    18.8451  19.3904  19.6664  21.3172  28.1979  28.9812  29.0438  29.6841
    36.6410  37.0819  43.3572  43.4638  46.4447  46.6781  53.3429  53.6067
    53.7642  54.1913  56.5469  57.1428  60.0580  60.2769  63.8833  64.3162
    69.1740  69.4332  70.7695  70.8582  71.1217  71.1535  73.3091  74.1136
    76.7357  77.2363  77.7440  78.0100  83.5168  84.3706  86.5627  86.8445
    87.8151  88.1332  91.9485  92.3875  95.6084  95.8917  98.3969  98.6748
   103.6573 104.0251 104.1677 104.3003

     occupation numbers 
     1.0000   1.0000   1.0000   1.0000   1.0000   1.0000   1.0000   1.0000
     1.0000   1.0000   1.0000   1.0000   1.0000   1.0000   1.0000   1.0000
    -0.0000  -0.0000  -0.0000  -0.0000  -0.0000  -0.0000  -0.0000  -0.0000
    -0.0000  -0.0000  -0.0000  -0.0000  -0.0000  -0.0000  -0.0000  -0.0000
    -0.0000  -0.0000  -0.0000  -0.0000  -0.0000  -0.0000  -0.0000  -0.0000
    -0.0000  -0.0000  -0.0000  -0.0000  -0.0000  -0.0000  -0.0000  -0.0000
    -0.0000  -0.0000  -0.0000  -0.0000  -0.0000  -0.0000  -0.0000  -0.0000
    -0.0000  -0.0000  -0.0000  -0.0000  -0.0000  -0.0000  -0.0000  -0.0000
    -0.0000  -0.0000  -0.0000  -0.0000

          k = 0.0000 0.5000 0.5000 (   476 PWs)   bands (ev):

   -70.5656 -67.7876 -37.3226 -36.8561 -36.0883 -34.2335 -33.7832 -33.3423
    12.6934  13.9449  14.1962  15.8986  16.4332  16.5395  17.7955  17.9848
    18.0215  19.0018  19.4001  20.0296  24.4540  25.8214  35.4253  35.4663
    37.2275  37.7435  40.3048  40.7719  43.9162  44.5654  51.2139  51.2289
    55.3361  55.4290  57.0342  57.6271  62.6625  63.4416  66.6104  66.7440
    69.0480  69.8024  70.6770  70.7667  71.4345  71.8931  73.9337  74.6112
    75.3066  75.8210  77.4306  77.6186  81.6412  81.6432  83.9168  84.0883
    89.8287  90.2902  90.6906  90.7588  92.5640  93.2927  95.2133  95.8933
   106.2452 106.4110 106.4675 106.5227

     occupation numbers 
     1.0000   1.0000   1.0000   1.0000   1.0000   1.0000   1.0000   1.0000
     1.0000   1.0000   1.0000   1.0000   1.0000   1.0000   0.0777  -0.0347
    -0.0304  -0.0000  -0.0000  -0.0000  -0.0000  -0.0000  -0.0000  -0.0000
    -0.0000  -0.0000  -0.0000  -0.0000  -0.0000  -0.0000  -0.0000  -0.0000
    -0.0000  -0.0000  -0.0000  -0.0000  -0.0000  -0.0000  -0.0000  -0.0000
    -0.0000  -0.0000  -0.0000  -0.0000  -0.0000  -0.0000  -0.0000  -0.0000
    -0.0000  -0.0000  -0.0000  -0.0000  -0.0000  -0.0000  -0.0000  -0.0000
    -0.0000  -0.0000  -0.0000  -0.0000  -0.0000  -0.0000  -0.0000  -0.0000
    -0.0000  -0.0000  -0.0000  -0.0000

          k = 0.0000 0.2500 0.7500 (   478 PWs)   bands (ev):

   -70.5408 -67.7605 -37.3529 -36.9045 -36.1604 -34.2642 -33.8277 -33.4406
    13.3793  13.8836  15.0827  15.5859  15.6135  16.1796  17.4396  17.6706
    18.1965  19.8820  22.4384  23.4332  25.0176  26.0725  30.9267  31.4186
    34.1614  34.7952  39.8024  40.1245  44.2278  45.0432  48.7136  49.0827
    52.1554  52.5439  62.8334  63.1327  65.5635  65.8293  67.7514  68.4023
    69.6318  69.9221  71.9269  72.0656  75.9944  76.5599  78.4933  79.0386
    80.4514  80.9378  82.7582  82.9447  83.5331  84.0355  86.9799  87.1159
    87.4747  87.5823  88.2075  88.7603  91.4162  91.7267  92.9698  93.2621
    97.0660  97.6316  99.8425 100.6098

     occupation numbers 
     1.0000   1.0000   1.0000   1.0000   1.0000   1.0000   1.0000   1.0000
     1.0000   1.0000   1.0000   1.0000   1.0000   1.0000   0.9608   0.3777
    -0.0061  -0.0000  -0.0000  -0.0000  -0.0000  -0.0000  -0.0000  -0.0000
    -0.0000  -0.0000  -0.0000  -0.0000  -0.0000  -0.0000  -0.0000  -0.0000
    -0.0000  -0.0000  -0.0000  -0.0000  -0.0000  -0.0000  -0.0000  -0.0000
    -0.0000  -0.0000  -0.0000  -0.0000  -0.0000  -0.0000  -0.0000  -0.0000
    -0.0000  -0.0000  -0.0000  -0.0000  -0.0000  -0.0000  -0.0000  -0.0000
    -0.0000  -0.0000  -0.0000  -0.0000  -0.0000  -0.0000  -0.0000  -0.0000
    -0.0000  -0.0000  -0.0000  -0.0000

          k = 0.0000 0.0000 1.0000 (   490 PWs)   bands (ev):

   -70.5164 -67.7338 -37.3988 -36.9479 -36.2231 -34.3144 -33.8702 -33.5175
    12.7874  12.7876  14.6165  14.6173  17.5035  17.5372  17.5727  19.7024
    19.7394  19.7736  26.9871  27.0464  27.1990  27.3224  27.3805  27.4231
    32.6641  32.6645  33.7155  33.7158  37.3427  38.3820  56.0543  56.1904
    64.7473  64.8097  64.9005  64.9653  64.9760  64.9863  65.2567  65.3091
    65.3205  65.3207  65.3319  65.3727  75.1639  75.2242  88.5631  88.5631
    88.5631  89.4659  89.4659  89.4660  92.1140  92.1155  92.1172  92.4583
    92.4591  92.4600  94.6005  94.6005  94.6011  94.7365  94.7369  94.7369
    95.6992  95.6992  95.7455  95.7457

     occupation numbers 
     1.0000   1.0000   1.0000   1.0000   1.0000   1.0000   1.0000   1.0000
     1.0000   1.0000   1.0000   1.0000   0.8520   0.7728   0.6763  -0.0000
    -0.0000  -0.0000  -0.0000  -0.0000  -0.0000  -0.0000  -0.0000  -0.0000
    -0.0000  -0.0000  -0.0000  -0.0000  -0.0000  -0.0000  -0.0000  -0.0000
    -0.0000  -0.0000  -0.0000  -0.0000  -0.0000  -0.0000  -0.0000  -0.0000
    -0.0000  -0.0000  -0.0000  -0.0000  -0.0000  -0.0000  -0.0000  -0.0000
    -0.0000  -0.0000  -0.0000  -0.0000  -0.0000  -0.0000  -0.0000  -0.0000
    -0.0000  -0.0000  -0.0000  -0.0000  -0.0000  -0.0000  -0.0000  -0.0000
    -0.0000  -0.0000  -0.0000  -0.0000

          k = 0.0000-0.2500 1.2500 (   478 PWs)   bands (ev):

   -70.5408 -67.7605 -37.3529 -36.9045 -36.1604 -34.2642 -33.8277 -33.4406
    13.3793  13.8836  15.0827  15.5859  15.6135  16.1796  17.4396  17.6706
    18.1965  19.8820  22.4384  23.4332  25.0176  26.0725  30.9267  31.4186
    34.1614  34.7952  39.8024  40.1245  44.2278  45.0432  48.7136  49.0827
    52.1554  52.5439  62.8334  63.1327  65.5635  65.8293  67.7514  68.4023
    69.6318  69.9221  71.9269  72.0656  75.9944  76.5599  78.4933  79.0386
    80.4514  80.9378  82.7582  82.9447  83.5331  84.0355  86.9799  87.1159
    87.4747  87.5823  88.2075  88.7603  91.4162  91.7267  92.9698  93.2621
    97.0660  97.6316  99.8425 100.6098

     occupation numbers 
     1.0000   1.0000   1.0000   1.0000   1.0000   1.0000   1.0000   1.0000
     1.0000   1.0000   1.0000   1.0000   1.0000   1.0000   0.9608   0.3777
    -0.0061  -0.0000  -0.0000  -0.0000  -0.0000  -0.0000  -0.0000  -0.0000
    -0.0000  -0.0000  -0.0000  -0.0000  -0.0000  -0.0000  -0.0000  -0.0000
    -0.0000  -0.0000  -0.0000  -0.0000  -0.0000  -0.0000  -0.0000  -0.0000
    -0.0000  -0.0000  -0.0000  -0.0000  -0.0000  -0.0000  -0.0000  -0.0000
    -0.0000  -0.0000  -0.0000  -0.0000  -0.0000  -0.0000  -0.0000  -0.0000
    -0.0000  -0.0000  -0.0000  -0.0000  -0.0000  -0.0000  -0.0000  -0.0000
    -0.0000  -0.0000  -0.0000  -0.0000

          k =-0.2500 0.7500 0.5000 (   478 PWs)   bands (ev):

   -70.5656 -67.7877 -37.3075 -36.8616 -36.0986 -34.2134 -33.7852 -33.3650
    13.5424  14.2362  14.5587  14.8544  15.8923  16.2881  16.3509  16.7491
    18.8464  19.3874  19.6684  21.3171  28.1981  28.9817  29.0431  29.6841
    36.6409  37.0820  43.3573  43.4638  46.4444  46.6782  53.3432  53.6056
    53.7653  54.1911  56.5470  57.1426  60.0582  60.2768  63.8833  64.3161
    69.1739  69.4332  70.7669  70.8626  71.1128  71.1605  73.3092  74.1135
    76.7359  77.2363  77.7441  78.0100  83.5166  84.3707  86.5627  86.8444
    87.8152  88.1330  91.9484  92.3876  95.6084  95.8917  98.3970  98.6748
   103.6575 104.0229 104.1709 104.2989

     occupation numbers 
     1.0000   1.0000   1.0000   1.0000   1.0000   1.0000   1.0000   1.0000
     1.0000   1.0000   1.0000   1.0000   1.0000   1.0000   1.0000   1.0000
    -0.0000  -0.0000  -0.0000  -0.0000  -0.0000  -0.0000  -0.0000  -0.0000
    -0.0000  -0.0000  -0.0000  -0.0000  -0.0000  -0.0000  -0.0000  -0.0000
    -0.0000  -0.0000  -0.0000  -0.0000  -0.0000  -0.0000  -0.0000  -0.0000
    -0.0000  -0.0000  -0.0000  -0.0000  -0.0000  -0.0000  -0.0000  -0.0000
    -0.0000  -0.0000  -0.0000  -0.0000  -0.0000  -0.0000  -0.0000  -0.0000
    -0.0000  -0.0000  -0.0000  -0.0000  -0.0000  -0.0000  -0.0000  -0.0000
[...]
    76.7359  77.2363  77.7441  78.0100  83.5166  84.3707  86.5627  86.8444
    87.8152  88.1330  91.9484  92.3876  95.6084  95.8917  98.3970  98.6748
   103.6575 104.0229 104.1709 104.2989

     occupation numbers 
     1.0000   1.0000   1.0000   1.0000   1.0000   1.0000   1.0000   1.0000
     1.0000   1.0000   1.0000   1.0000   1.0000   1.0000   1.0000   1.0000
    -0.0000  -0.0000  -0.0000  -0.0000  -0.0000  -0.0000  -0.0000  -0.0000
    -0.0000  -0.0000  -0.0000  -0.0000  -0.0000  -0.0000  -0.0000  -0.0000
    -0.0000  -0.0000  -0.0000  -0.0000  -0.0000  -0.0000  -0.0000  -0.0000
    -0.0000  -0.0000  -0.0000  -0.0000  -0.0000  -0.0000  -0.0000  -0.0000
    -0.0000  -0.0000  -0.0000  -0.0000  -0.0000  -0.0000  -0.0000  -0.0000
    -0.0000  -0.0000  -0.0000  -0.0000  -0.0000  -0.0000  -0.0000  -0.0000
    -0.0000  -0.0000  -0.0000  -0.0000

          k = 0.5000 0.2500 0.7500 (   478 PWs)   bands (ev):

   -70.5656 -67.7877 -37.3186 -36.8385 -36.1120 -34.2286 -33.7513 -33.3821
    13.5422  14.2366  14.5589  14.8545  15.8928  16.2698  16.3678  16.7496
    18.8451  19.3904  19.6664  21.3172  28.1979  28.9812  29.0438  29.6841
    36.6410  37.0819  43.3572  43.4638  46.4447  46.6781  53.3429  53.6067
    53.7642  54.1913  56.5469  57.1428  60.0580  60.2769  63.8833  64.3162
    69.1740  69.4332  70.7695  70.8582  71.1217  71.1535  73.3091  74.1136
    76.7357  77.2363  77.7440  78.0100  83.5168  84.3706  86.5627  86.8445
    87.8151  88.1332  91.9485  92.3875  95.6084  95.8917  98.3969  98.6748
   103.6573 104.0251 104.1677 104.3003

     occupation numbers 
     1.0000   1.0000   1.0000   1.0000   1.0000   1.0000   1.0000   1.0000
     1.0000   1.0000   1.0000   1.0000   1.0000   1.0000   1.0000   1.0000
    -0.0000  -0.0000  -0.0000  -0.0000  -0.0000  -0.0000  -0.0000  -0.0000
    -0.0000  -0.0000  -0.0000  -0.0000  -0.0000  -0.0000  -0.0000  -0.0000
    -0.0000  -0.0000  -0.0000  -0.0000  -0.0000  -0.0000  -0.0000  -0.0000
    -0.0000  -0.0000  -0.0000  -0.0000  -0.0000  -0.0000  -0.0000  -0.0000
    -0.0000  -0.0000  -0.0000  -0.0000  -0.0000  -0.0000  -0.0000  -0.0000
    -0.0000  -0.0000  -0.0000  -0.0000  -0.0000  -0.0000  -0.0000  -0.0000
    -0.0000  -0.0000  -0.0000  -0.0000

          k = 0.5000 0.0000 1.0000 (   458 PWs)   bands (ev):

   -70.5692 -67.7920 -37.2945 -36.8148 -36.1117 -34.1963 -33.7172 -33.3948
    12.9152  13.4460  14.5560  15.6540  15.6559  16.3534  16.8118  17.4840
    17.5069  17.6185  18.4075  20.0047  34.1289  34.1295  34.5684  34.7259
    34.7277  35.1547  36.8781  37.2552  50.6994  50.7251  50.7257  50.9724
    50.9727  51.1562  52.6803  53.2898  57.6885  58.1949  65.2919  65.4064
    66.5596  66.5599  67.1011  67.1013  79.0530  79.4326  80.8606  81.1228
    83.7034  83.7036  84.5533  84.5533  85.5688  85.9514  86.9128  86.9129
    87.0786  87.0787  90.7215  91.3766  94.8303  95.2695  97.8020  97.8021
    97.9923  97.9925  99.1566  99.2993

     occupation numbers 
     1.0000   1.0000   1.0000   1.0000   1.0000   1.0000   1.0000   1.0000
     1.0000   1.0000   1.0000   1.0000   1.0000   1.0000   1.0001   0.8910
     0.8446   0.5382  -0.0002  -0.0000  -0.0000  -0.0000  -0.0000  -0.0000
    -0.0000  -0.0000  -0.0000  -0.0000  -0.0000  -0.0000  -0.0000  -0.0000
    -0.0000  -0.0000  -0.0000  -0.0000  -0.0000  -0.0000  -0.0000  -0.0000
    -0.0000  -0.0000  -0.0000  -0.0000  -0.0000  -0.0000  -0.0000  -0.0000
    -0.0000  -0.0000  -0.0000  -0.0000  -0.0000  -0.0000  -0.0000  -0.0000
    -0.0000  -0.0000  -0.0000  -0.0000  -0.0000  -0.0000  -0.0000  -0.0000
    -0.0000  -0.0000  -0.0000  -0.0000

          k = 0.5000-0.2500 1.2500 (   478 PWs)   bands (ev):

   -70.5656 -67.7877 -37.3186 -36.8385 -36.1120 -34.2286 -33.7513 -33.3821
    13.5422  14.2366  14.5589  14.8545  15.8928  16.2698  16.3678  16.7496
    18.8451  19.3904  19.6664  21.3172  28.1979  28.9812  29.0438  29.6841
    36.6410  37.0819  43.3572  43.4638  46.4447  46.6781  53.3429  53.6067
    53.7642  54.1913  56.5469  57.1428  60.0580  60.2769  63.8833  64.3162
    69.1740  69.4332  70.7695  70.8582  71.1217  71.1535  73.3091  74.1136
    76.7357  77.2363  77.7440  78.0100  83.5168  84.3706  86.5627  86.8445
    87.8151  88.1332  91.9485  92.3875  95.6084  95.8917  98.3969  98.6748
   103.6573 104.0251 104.1677 104.3003

     occupation numbers 
     1.0000   1.0000   1.0000   1.0000   1.0000   1.0000   1.0000   1.0000
     1.0000   1.0000   1.0000   1.0000   1.0000   1.0000   1.0000   1.0000
    -0.0000  -0.0000  -0.0000  -0.0000  -0.0000  -0.0000  -0.0000  -0.0000
    -0.0000  -0.0000  -0.0000  -0.0000  -0.0000  -0.0000  -0.0000  -0.0000
    -0.0000  -0.0000  -0.0000  -0.0000  -0.0000  -0.0000  -0.0000  -0.0000
    -0.0000  -0.0000  -0.0000  -0.0000  -0.0000  -0.0000  -0.0000  -0.0000
    -0.0000  -0.0000  -0.0000  -0.0000  -0.0000  -0.0000  -0.0000  -0.0000
    -0.0000  -0.0000  -0.0000  -0.0000  -0.0000  -0.0000  -0.0000  -0.0000
    -0.0000  -0.0000  -0.0000  -0.0000

          k = 0.5000-0.5000 1.5000 (   484 PWs)   bands (ev):

   -70.5615 -67.7831 -37.3156 -36.8630 -36.1347 -34.2215 -33.7753 -33.4211
    14.3299  14.3400  14.3515  15.7073  15.7135  15.7149  16.5759  16.5767
    19.4461  19.4467  25.8192  25.8491  25.8815  26.6752  26.6975  26.7172
    27.7730  28.4740  55.3326  55.3326  55.3326  55.6327  55.6327  55.6328
    56.1808  56.1843  56.1883  56.3502  56.3549  56.3592  62.0550  62.0553
    62.9257  62.9259  65.8703  65.9708  66.1025  66.8298  66.9287  67.0119
    72.9813  73.7817  88.5438  88.5438  88.5441  88.8216  88.8217  88.8217
    93.2416  93.2417  93.5544  93.5545  94.6107  94.6185  94.6347  94.6578
    94.6682  94.6749 102.7322 102.8048

     occupation numbers 
     1.0000   1.0000   1.0000   1.0000   1.0000   1.0000   1.0000   1.0000
     1.0000   1.0000   1.0000   1.0000   1.0000   1.0000   1.0000   1.0000
    -0.0000  -0.0000  -0.0000  -0.0000  -0.0000  -0.0000  -0.0000  -0.0000
    -0.0000  -0.0000  -0.0000  -0.0000  -0.0000  -0.0000  -0.0000  -0.0000
    -0.0000  -0.0000  -0.0000  -0.0000  -0.0000  -0.0000  -0.0000  -0.0000
    -0.0000  -0.0000  -0.0000  -0.0000  -0.0000  -0.0000  -0.0000  -0.0000
    -0.0000  -0.0000  -0.0000  -0.0000  -0.0000  -0.0000  -0.0000  -0.0000
    -0.0000  -0.0000  -0.0000  -0.0000  -0.0000  -0.0000  -0.0000  -0.0000
    -0.0000  -0.0000  -0.0000  -0.0000

          k = 0.2500 0.5000 0.7500 (   478 PWs)   bands (ev):

   -70.5656 -67.7877 -37.3186 -36.8385 -36.1120 -34.2286 -33.7513 -33.3821
    13.5422  14.2366  14.5589  14.8545  15.8928  16.2698  16.3678  16.7496
    18.8451  19.3904  19.6664  21.3172  28.1979  28.9812  29.0438  29.6841
    36.6410  37.0819  43.3572  43.4638  46.4447  46.6781  53.3429  53.6067
    53.7642  54.1913  56.5469  57.1428  60.0580  60.2769  63.8833  64.3162
    69.1740  69.4332  70.7695  70.8582  71.1217  71.1535  73.3091  74.1136
    76.7357  77.2363  77.7440  78.0100  83.5168  84.3706  86.5627  86.8445
    87.8151  88.1332  91.9485  92.3875  95.6084  95.8917  98.3969  98.6748
   103.6573 104.0251 104.1677 104.3003

     occupation numbers 
     1.0000   1.0000   1.0000   1.0000   1.0000   1.0000   1.0000   1.0000
     1.0000   1.0000   1.0000   1.0000   1.0000   1.0000   1.0000   1.0000
    -0.0000  -0.0000  -0.0000  -0.0000  -0.0000  -0.0000  -0.0000  -0.0000
    -0.0000  -0.0000  -0.0000  -0.0000  -0.0000  -0.0000  -0.0000  -0.0000
    -0.0000  -0.0000  -0.0000  -0.0000  -0.0000  -0.0000  -0.0000  -0.0000
    -0.0000  -0.0000  -0.0000  -0.0000  -0.0000  -0.0000  -0.0000  -0.0000
    -0.0000  -0.0000  -0.0000  -0.0000  -0.0000  -0.0000  -0.0000  -0.0000
    -0.0000  -0.0000  -0.0000  -0.0000  -0.0000  -0.0000  -0.0000  -0.0000
    -0.0000  -0.0000  -0.0000  -0.0000

          k = 0.2500 0.2500 1.0000 (   478 PWs)   bands (ev):

   -70.5408 -67.7605 -37.3642 -36.8807 -36.1744 -34.2793 -33.7919 -33.4598
    13.3791  13.8839  15.0818  15.5849  15.6183  16.1751  17.4457  17.6670
    18.1957  19.8817  22.4385  23.4335  25.0175  26.0726  30.9266  31.4185
    34.1616  34.7950  39.8025  40.1246  44.2277  45.0432  48.7135  49.0827
    52.1556  52.5439  62.8332  63.1327  65.5634  65.8294  67.7516  68.4023
    69.6322  69.9220  71.9269  72.0657  75.9942  76.5600  78.4932  79.0386
    80.4509  80.9381  82.7578  82.9449  83.5330  84.0356  86.9798  87.1158
    87.4753  87.5819  88.2075  88.7602  91.4165  91.7266  92.9698  93.2621
    97.0665  97.6310  99.8430 100.6098

     occupation numbers 
     1.0000   1.0000   1.0000   1.0000   1.0000   1.0000   1.0000   1.0000
     1.0000   1.0000   1.0000   1.0000   1.0000   1.0000   0.9527   0.3886
    -0.0062  -0.0000  -0.0000  -0.0000  -0.0000  -0.0000  -0.0000  -0.0000
    -0.0000  -0.0000  -0.0000  -0.0000  -0.0000  -0.0000  -0.0000  -0.0000
    -0.0000  -0.0000  -0.0000  -0.0000  -0.0000  -0.0000  -0.0000  -0.0000
    -0.0000  -0.0000  -0.0000  -0.0000  -0.0000  -0.0000  -0.0000  -0.0000
    -0.0000  -0.0000  -0.0000  -0.0000  -0.0000  -0.0000  -0.0000  -0.0000
    -0.0000  -0.0000  -0.0000  -0.0000  -0.0000  -0.0000  -0.0000  -0.0000
    -0.0000  -0.0000  -0.0000  -0.0000

          k = 0.2500 0.0000 1.2500 (   478 PWs)   bands (ev):

   -70.5408 -67.7605 -37.3529 -36.9045 -36.1604 -34.2642 -33.8277 -33.4406
    13.3793  13.8836  15.0827  15.5859  15.6135  16.1796  17.4396  17.6706
    18.1965  19.8820  22.4384  23.4332  25.0176  26.0725  30.9267  31.4186
    34.1614  34.7952  39.8024  40.1245  44.2278  45.0432  48.7136  49.0827
    52.1554  52.5439  62.8334  63.1327  65.5635  65.8293  67.7514  68.4023
    69.6318  69.9221  71.9269  72.0656  75.9944  76.5599  78.4933  79.0386
    80.4514  80.9378  82.7582  82.9447  83.5331  84.0355  86.9799  87.1159
    87.4747  87.5823  88.2075  88.7603  91.4162  91.7267  92.9698  93.2621
    97.0660  97.6316  99.8425 100.6098

     occupation numbers 
     1.0000   1.0000   1.0000   1.0000   1.0000   1.0000   1.0000   1.0000
     1.0000   1.0000   1.0000   1.0000   1.0000   1.0000   0.9608   0.3777
    -0.0061  -0.0000  -0.0000  -0.0000  -0.0000  -0.0000  -0.0000  -0.0000
    -0.0000  -0.0000  -0.0000  -0.0000  -0.0000  -0.0000  -0.0000  -0.0000
    -0.0000  -0.0000  -0.0000  -0.0000  -0.0000  -0.0000  -0.0000  -0.0000
    -0.0000  -0.0000  -0.0000  -0.0000  -0.0000  -0.0000  -0.0000  -0.0000
    -0.0000  -0.0000  -0.0000  -0.0000  -0.0000  -0.0000  -0.0000  -0.0000
    -0.0000  -0.0000  -0.0000  -0.0000  -0.0000  -0.0000  -0.0000  -0.0000
    -0.0000  -0.0000  -0.0000  -0.0000

          k = 0.2500-0.2500 1.5000 (   478 PWs)   bands (ev):

   -70.5656 -67.7877 -37.3075 -36.8616 -36.0986 -34.2134 -33.7852 -33.3650
    13.5424  14.2362  14.5587  14.8544  15.8923  16.2881  16.3509  16.7491
    18.8464  19.3874  19.6684  21.3171  28.1981  28.9817  29.0431  29.6841
    36.6409  37.0820  43.3573  43.4638  46.4444  46.6782  53.3432  53.6056
    53.7653  54.1911  56.5470  57.1426  60.0582  60.2768  63.8833  64.3161
    69.1739  69.4332  70.7669  70.8626  71.1128  71.1605  73.3092  74.1135
    76.7359  77.2363  77.7441  78.0100  83.5166  84.3707  86.5627  86.8444
    87.8152  88.1330  91.9484  92.3876  95.6084  95.8917  98.3970  98.6748
   103.6575 104.0229 104.1709 104.2989

     occupation numbers 
     1.0000   1.0000   1.0000   1.0000   1.0000   1.0000   1.0000   1.0000
     1.0000   1.0000   1.0000   1.0000   1.0000   1.0000   1.0000   1.0000
    -0.0000  -0.0000  -0.0000  -0.0000  -0.0000  -0.0000  -0.0000  -0.0000
    -0.0000  -0.0000  -0.0000  -0.0000  -0.0000  -0.0000  -0.0000  -0.0000
    -0.0000  -0.0000  -0.0000  -0.0000  -0.0000  -0.0000  -0.0000  -0.0000
    -0.0000  -0.0000  -0.0000  -0.0000  -0.0000  -0.0000  -0.0000  -0.0000
    -0.0000  -0.0000  -0.0000  -0.0000  -0.0000  -0.0000  -0.0000  -0.0000
    -0.0000  -0.0000  -0.0000  -0.0000  -0.0000  -0.0000  -0.0000  -0.0000
    -0.0000  -0.0000  -0.0000  -0.0000

          k = 0.0000 0.7500 0.7500 (   481 PWs)   bands (ev):

   -70.5993 -67.8247 -37.2272 -36.7757 -36.0251 -34.1202 -33.6803 -33.2898
    11.3846  11.5907  14.6934  15.0888  16.2087  16.3812  16.4267  16.5133
    16.8453  18.4357  18.8185  19.2393  32.8447  33.4382  38.2637  38.2832
    40.8698  41.0090  41.0846  41.7094  44.2302  44.7882  47.7624  47.8684
    50.7775  51.0173  54.8030  55.0190  58.7803  59.2321  59.4981  59.9973
    60.1646  60.2666  67.9265  68.0971  68.4679  68.7002  76.6260  77.1458
    82.4883  83.2627  86.6708  87.2957  88.1726  88.1838  89.1487  89.5565
    89.6750  89.9646  97.3653  97.4939  98.0583  98.7419  99.9843 100.5250
   104.1079 104.8716 105.6788 106.1295

     occupation numbers 
     1.0000   1.0000   1.0000   1.0000   1.0000   1.0000   1.0000   1.0000
     1.0000   1.0000   1.0000   1.0000   1.0000   1.0000   1.0000   1.0000
     1.0002  -0.0001  -0.0000  -0.0000  -0.0000  -0.0000  -0.0000  -0.0000
    -0.0000  -0.0000  -0.0000  -0.0000  -0.0000  -0.0000  -0.0000  -0.0000
    -0.0000  -0.0000  -0.0000  -0.0000  -0.0000  -0.0000  -0.0000  -0.0000
    -0.0000  -0.0000  -0.0000  -0.0000  -0.0000  -0.0000  -0.0000  -0.0000
    -0.0000  -0.0000  -0.0000  -0.0000  -0.0000  -0.0000  -0.0000  -0.0000
    -0.0000  -0.0000  -0.0000  -0.0000  -0.0000  -0.0000  -0.0000  -0.0000
    -0.0000  -0.0000  -0.0000  -0.0000

          k = 0.0000 0.5000 1.0000 (   458 PWs)   bands (ev):

   -70.5692 -67.7920 -37.2945 -36.8148 -36.1117 -34.1963 -33.7172 -33.3948
    12.9152  13.4460  14.5560  15.6540  15.6559  16.3534  16.8118  17.4840
    17.5069  17.6185  18.4075  20.0047  34.1289  34.1295  34.5684  34.7259
    34.7277  35.1547  36.8781  37.2552  50.6994  50.7251  50.7257  50.9724
    50.9727  51.1562  52.6803  53.2898  57.6885  58.1949  65.2919  65.4064
    66.5596  66.5599  67.1011  67.1013  79.0530  79.4326  80.8606  81.1228
    83.7034  83.7036  84.5533  84.5533  85.5688  85.9514  86.9128  86.9129
    87.0786  87.0787  90.7215  91.3766  94.8303  95.2695  97.8020  97.8021
    97.9923  97.9925  99.1566  99.2993

     occupation numbers 
     1.0000   1.0000   1.0000   1.0000   1.0000   1.0000   1.0000   1.0000
     1.0000   1.0000   1.0000   1.0000   1.0000   1.0000   1.0001   0.8910
     0.8446   0.5382  -0.0002  -0.0000  -0.0000  -0.0000  -0.0000  -0.0000
    -0.0000  -0.0000  -0.0000  -0.0000  -0.0000  -0.0000  -0.0000  -0.0000
    -0.0000  -0.0000  -0.0000  -0.0000  -0.0000  -0.0000  -0.0000  -0.0000
    -0.0000  -0.0000  -0.0000  -0.0000  -0.0000  -0.0000  -0.0000  -0.0000
    -0.0000  -0.0000  -0.0000  -0.0000  -0.0000  -0.0000  -0.0000  -0.0000
    -0.0000  -0.0000  -0.0000  -0.0000  -0.0000  -0.0000  -0.0000  -0.0000
    -0.0000  -0.0000  -0.0000  -0.0000

          k = 0.0000 0.2500 1.2500 (   478 PWs)   bands (ev):

   -70.5408 -67.7605 -37.3529 -36.9045 -36.1604 -34.2642 -33.8277 -33.4406
    13.3793  13.8836  15.0827  15.5859  15.6135  16.1796  17.4396  17.6706
    18.1965  19.8820  22.4384  23.4332  25.0176  26.0725  30.9267  31.4186
    34.1614  34.7952  39.8024  40.1245  44.2278  45.0432  48.7136  49.0827
    52.1554  52.5439  62.8334  63.1327  65.5635  65.8293  67.7514  68.4023
    69.6318  69.9221  71.9269  72.0656  75.9944  76.5599  78.4933  79.0386
    80.4514  80.9378  82.7582  82.9447  83.5331  84.0355  86.9799  87.1159
    87.4747  87.5823  88.2075  88.7603  91.4162  91.7267  92.9698  93.2621
    97.0660  97.6316  99.8425 100.6098

     occupation numbers 
     1.0000   1.0000   1.0000   1.0000   1.0000   1.0000   1.0000   1.0000
     1.0000   1.0000   1.0000   1.0000   1.0000   1.0000   0.9608   0.3777
    -0.0061  -0.0000  -0.0000  -0.0000  -0.0000  -0.0000  -0.0000  -0.0000
    -0.0000  -0.0000  -0.0000  -0.0000  -0.0000  -0.0000  -0.0000  -0.0000
    -0.0000  -0.0000  -0.0000  -0.0000  -0.0000  -0.0000  -0.0000  -0.0000
    -0.0000  -0.0000  -0.0000  -0.0000  -0.0000  -0.0000  -0.0000  -0.0000
    -0.0000  -0.0000  -0.0000  -0.0000  -0.0000  -0.0000  -0.0000  -0.0000
    -0.0000  -0.0000  -0.0000  -0.0000  -0.0000  -0.0000  -0.0000  -0.0000
    -0.0000  -0.0000  -0.0000  -0.0000

          k = 0.0000 0.0000 1.5000 (   458 PWs)   bands (ev):

   -70.5692 -67.7920 -37.2690 -36.8667 -36.0812 -34.1694 -33.7830 -33.3600
    12.9153  13.4459  14.5557  15.6241  15.6871  16.3606  16.8046  17.4426
    17.5382  17.6274  18.4086  20.0040  34.0656  34.2108  34.5682  34.6465
    34.7899  35.1546  36.8776  37.2553  50.6834  50.7000  50.7923  50.9053
    51.0145  51.1563  52.6805  53.2896  57.6883  58.1949  65.2918  65.4066
    66.5361  66.5860  67.0738  67.1260  79.0530  79.4326  80.8610  81.1226
    83.6924  83.7149  84.5433  84.5630  85.5685  85.9517  86.8866  86.9558
    87.0317  87.1087  90.7217  91.3762  94.8301  95.2696  97.7972  97.8074
    97.9883  97.9965  99.1572  99.2989

     occupation numbers 
     1.0000   1.0000   1.0000   1.0000   1.0000   1.0000   1.0000   1.0000
     1.0000   1.0000   1.0000   1.0000   1.0000   1.0000   1.0001   0.9569
     0.7705   0.5108  -0.0002  -0.0000  -0.0000  -0.0000  -0.0000  -0.0000
    -0.0000  -0.0000  -0.0000  -0.0000  -0.0000  -0.0000  -0.0000  -0.0000
    -0.0000  -0.0000  -0.0000  -0.0000  -0.0000  -0.0000  -0.0000  -0.0000
    -0.0000  -0.0000  -0.0000  -0.0000  -0.0000  -0.0000  -0.0000  -0.0000
    -0.0000  -0.0000  -0.0000  -0.0000  -0.0000  -0.0000  -0.0000  -0.0000
    -0.0000  -0.0000  -0.0000  -0.0000  -0.0000  -0.0000  -0.0000  -0.0000
    -0.0000  -0.0000  -0.0000  -0.0000

     the Fermi energy is    17.6308 ev
     (compare with:    17.4612 eV, computed in scf)

     Writing all to output data dir ./work/iron.save/ :
     XML data file, pseudopotentials, collected wavefunctions

     init_run     :      0.84s CPU      0.87s WALL (       1 calls)
     electrons    :      8.06s CPU      8.31s WALL (       1 calls)

     Called by init_run:
     wfcinit      :      0.00s CPU      0.00s WALL (       1 calls)
     wfcinit:atom :      0.00s CPU      0.00s WALL (      16 calls)
     wfcinit:wfcr :      0.46s CPU      0.48s WALL (      16 calls)
     potinit      :      0.19s CPU      0.20s WALL (       1 calls)
     hinit0       :      0.58s CPU      0.58s WALL (       1 calls)

     Called by electrons:
     c_bands      :      8.06s CPU      8.30s WALL (       1 calls)
     v_of_rho     :      0.03s CPU      0.03s WALL (       1 calls)
     v_h          :      0.00s CPU      0.00s WALL (       1 calls)
     v_xc         :      0.02s CPU      0.03s WALL (       1 calls)
     newd         :      0.07s CPU      0.08s WALL (       1 calls)

     Called by c_bands:
     init_us_2    :      0.00s CPU      0.00s WALL (      16 calls)
     cegterg      :      7.31s CPU      7.50s WALL (      32 calls)

     Called by sum_band:

     Called by *egterg:
     cdiaghg      :      1.56s CPU      1.57s WALL (     439 calls)
     cegterg:over :      0.50s CPU      0.51s WALL (     423 calls)
     cegterg:upda :      0.29s CPU      0.30s WALL (     423 calls)
     cegterg:last :      0.79s CPU      0.80s WALL (     215 calls)
     h_psi        :      4.30s CPU      4.45s WALL (     471 calls)
     s_psi        :      0.11s CPU      0.13s WALL (     471 calls)
     g_psi        :      0.06s CPU      0.06s WALL (     423 calls)

     Called by h_psi:
     h_psi:calbec :      0.09s CPU      0.09s WALL (     471 calls)
     vloc_psi     :      4.06s CPU      4.18s WALL (     471 calls)
     add_vuspsi   :      0.13s CPU      0.13s WALL (     471 calls)

     General routines
     calbec       :      0.09s CPU      0.09s WALL (     471 calls)
     fft          :      0.21s CPU      0.21s WALL (      31 calls)
     ffts         :      0.16s CPU      0.17s WALL (       4 calls)
     fftw         :      3.19s CPU      3.28s WALL (   64264 calls)
     interpolate  :      0.17s CPU      0.17s WALL (       4 calls)

     Parallel routines

     PWSCF        :      9.09s CPU      9.40s WALL


   This run was terminated on:   1:16:10  22Jul2026            

=------------------------------------------------------------------------------=
   JOB DONE.
=------------------------------------------------------------------------------=
