
             +---------------------------------------------------+
             |                                                   |
             |                   WANNIER90                       |
             |                                                   |
             +---------------------------------------------------+
             |                                                   |
             |        Welcome to the Maximally-Localized         |
             |        Generalized Wannier Functions code         |
             |            http://www.wannier.org                 |
             |                                                   |
             |                                                   |
             |  Wannier90 Developer Group:                       |
             |    Giovanni Pizzi    (EPFL)                       |
             |    Valerio Vitale    (Cambridge)                  |
             |    David Vanderbilt  (Rutgers University)         |
             |    Nicola Marzari    (EPFL)                       |
             |    Ivo Souza         (Universidad del Pais Vasco) |
             |    Arash A. Mostofi  (Imperial College London)    |
             |    Jonathan R. Yates (University of Oxford)       |
             |                                                   |
             |  For the full list of Wannier90 3.x authors,      |
             |  please check the code documentation and the      |
             |  README on the GitHub page of the code            |
             |                                                   |
             |                                                   |
             |  Please cite                                      |
             |                                                   |
             |  [ref] "Wannier90 as a community code:            |
             |        new features and applications",            |
             |        G. Pizzi et al., J. Phys. Cond. Matt. 32,  |
             |        165902 (2020).                             |
             |        http://doi.org/10.1088/1361-648X/ab51ff    |
             |                                                   |
             |  in any publications arising from the use of      |
             |  this code. For the method please cite            |
             |                                                   |
             |  [ref] "Maximally Localized Generalised Wannier   |
             |         Functions for Composite Energy Bands"     |
             |         N. Marzari and D. Vanderbilt              |
             |         Phys. Rev. B 56 12847 (1997)              |
             |                                                   |
             |  [ref] "Maximally Localized Wannier Functions     |
             |         for Entangled Energy Bands"               |
             |         I. Souza, N. Marzari and D. Vanderbilt    |
             |         Phys. Rev. B 65 035109 (2001)             |
             |                                                   |
             |                                                   |
             | Copyright (c) 1996-2020                           |
             |        The Wannier90 Developer Group and          |
             |        individual contributors                    |
             |                                                   |
             |      Release: 3.1.0        5th March    2020      |
             |                                                   |
             | This program is free software; you can            |
             | redistribute it and/or modify it under the terms  |
             | of the GNU General Public License as published by |
             | the Free Software Foundation; either version 2 of |
             | the License, or (at your option) any later version|
             |                                                   |
             | This program is distributed in the hope that it   |
             | will be useful, but WITHOUT ANY WARRANTY; without |
             | even the implied warranty of MERCHANTABILITY or   |
             | FITNESS FOR A PARTICULAR PURPOSE. See the GNU     |
             | General Public License for more details.          |
             |                                                   |
             | You should have received a copy of the GNU General|
             | Public License along with this program; if not,   |
             | write to the Free Software Foundation, Inc.,      |
             | 675 Mass Ave, Cambridge, MA 02139, USA.           |
             |                                                   |
             +---------------------------------------------------+
             |    Execution started on 22Jul2026 at 01:16:35     |
             +---------------------------------------------------+
 
 ******************************************************************************
 * -> Using CODATA 2006 constant values                                       *
 *    (http://physics.nist.gov/cuu/Constants/index.html)                      *
 * -> Using Bohr value from CODATA                                            *
 ******************************************************************************
 

 Running in serial (with serial executable)

                                    ------
                                    SYSTEM
                                    ------

                              Lattice Vectors (Ang)
                    a_1     1.434070   1.434070   1.434070
                    a_2    -1.434070   1.434070   1.434070
                    a_3    -1.434070  -1.434070   1.434070

                   Unit Cell Volume:      11.79699  (Ang^3)

                        Reciprocal-Space Vectors (Ang^-1)
                    b_1     2.190683   0.000000   2.190683
                    b_2    -2.190683   2.190683   0.000000
                    b_3     0.000000  -2.190683   2.190683
  
 *----------------------------------------------------------------------------*
 |   Site       Fractional Coordinate          Cartesian Coordinate (Ang)     |
 +----------------------------------------------------------------------------+
 | Fe   1   0.00000   0.00000   0.00000   |    0.00000   0.00000   0.00000    |
 *----------------------------------------------------------------------------*
                                ------------
                                K-POINT GRID
                                ------------
  
             Grid size =  4 x  4 x  4      Total points =   64
  
  
 *---------------------------------- MAIN ------------------------------------*
 |  Number of Wannier Functions               :                18             |
 |  Number of Objective Wannier Functions     :                18             |
 |  Number of input Bloch states              :                60             |
 |  Output verbosity (1=low, 5=high)          :                 1             |
 |  Timing Level (1=low, 5=high)              :                 1             |
 |  Optimisation (0=memory, 3=speed)          :                 3             |
 |  Length Unit                               :               Ang             |
 |  Post-processing setup (write *.nnkp)      :                 F             |
 |  Using Gamma-only branch of algorithms     :                 F             |
 *----------------------------------------------------------------------------*
 *------------------------------- WANNIERISE ---------------------------------*
 |  Total number of iterations                :               100             |
 |  Number of CG steps before reset           :                 5             |
 |  Trial step length for line search         :             2.000             |
 |  Convergence tolerence                     :         0.100E-09             |
 |  Convergence window                        :                -1             |
 |  Iterations between writing output         :                 1             |
 |  Iterations between backing up to disk     :               100             |
 |  Write r^2_nm to file                      :                 F             |
 |  Write xyz WF centres to file              :                 F             |
 |  Write on-site energies <0n|H|0n> to file  :                 F             |
 |  Use guiding centre to control phases      :                 F             |
 |  Use phases for initial projections        :                 F             |
 *----------------------------------------------------------------------------*
 *------------------------------- DISENTANGLE --------------------------------*
 |  Using band disentanglement                :                 T             |
 |  Total number of iterations                :               200             |
 |  Mixing ratio                              :             0.500             |
 |  Convergence tolerence                     :         1.000E-10             |
 |  Convergence window                        :                 3             |
 *----------------------------------------------------------------------------*
 *-------------------------------- PLOTTING ----------------------------------*
 Time to read parameters        0.008 (sec)

 *---------------------------------- K-MESH ----------------------------------*
 +----------------------------------------------------------------------------+
 |                    Distance to Nearest-Neighbour Shells                    |
 |                    ------------------------------------                    |
 |          Shell             Distance (Ang^-1)          Multiplicity         |
 |          -----             -----------------          ------------         |
 |             1                   0.774523                     12            |
 |             2                   1.095341                      6            |
 |             3                   1.341514                     24            |
 |             4                   1.549046                     12            |
 |             5                   1.731887                     24            |
 |             6                   1.897187                      8            |
 |             7                   2.049196                     48            |
 |             8                   2.190683                      6            |
 |             9                   2.323570                     36            |
 |            10                   2.449258                     24            |
 |            11                   2.568803                     24            |
 |            12                   2.683027                     24            |
 |            13                   2.792583                     72            |
 |            14                   2.999716                     48            |
 |            15                   3.098093                     12            |
 |            16                   3.193441                     48            |
 |            17                   3.286024                     30            |
 |            18                   3.376069                     72            |
 |            19                   3.463773                     24            |
 |            20                   3.549311                     48            |
 |            21                   3.632836                     24            |
 |            22                   3.714483                     48            |
 |            23                   3.794373                      8            |
 |            24                   3.872616                     84            |
 |            25                   3.949309                     24            |
 |            26                   4.024541                     96            |
 |            27                   4.098392                     48            |
 |            28                   4.170935                     24            |
 |            29                   4.312363                     96            |
 |            30                   4.381365                      6            |
 |            31                   4.449297                     96            |
 |            32                   4.516208                     48            |
 |            33                   4.582141                     48            |
 |            34                   4.647139                     36            |
 |            35                   4.711241                    120            |
 |            36                   4.774482                     24            |
 +----------------------------------------------------------------------------+
 | The b-vectors are chosen automatically                                     |
 | The following shells are used:   1                                         |
 +----------------------------------------------------------------------------+
 |                        Shell   # Nearest-Neighbours                        |
 |                        -----   --------------------                        |
 |                          1              12                                 |
 +----------------------------------------------------------------------------+
 | Completeness relation is fully satisfied [Eq. (B1), PRB 56, 12847 (1997)]  |
 +----------------------------------------------------------------------------+
 |                  b_k Vectors (Ang^-1) and Weights (Ang^2)                  |
 |                  ----------------------------------------                  |
 |            No.         b_k(x)      b_k(y)      b_k(z)        w_b           |
 |            ---        --------------------------------     --------        |
 |             1         0.000000   -0.547671    0.547671     0.416746        |
 |             2        -0.547671    0.547671    0.000000     0.416746        |
 |             3        -0.547671    0.000000    0.547671     0.416746        |
 |             4         0.547671    0.000000    0.547671     0.416746        |
 |             5         0.000000    0.547671    0.547671     0.416746        |
 |             6         0.000000    0.547671   -0.547671     0.416746        |
 |             7         0.547671    0.547671    0.000000     0.416746        |
 |             8         0.547671   -0.547671    0.000000     0.416746        |
 |             9         0.547671    0.000000   -0.547671     0.416746        |
 |            10        -0.547671    0.000000   -0.547671     0.416746        |
 |            11        -0.547671   -0.547671    0.000000     0.416746        |
 |            12         0.000000   -0.547671   -0.547671     0.416746        |
 +----------------------------------------------------------------------------+
 |                           b_k Directions (Ang^-1)                          |
 |                           -----------------------                          |
 |            No.           x           y           z                         |
 |            ---        --------------------------------                     |
 |             1         0.000000   -0.547671    0.547671                     |
 |             2        -0.547671    0.547671    0.000000                     |
 |             3        -0.547671    0.000000    0.547671                     |
 |             4         0.547671    0.000000    0.547671                     |
 |             5         0.000000    0.547671    0.547671                     |
 |             6         0.547671    0.547671    0.000000                     |
 +----------------------------------------------------------------------------+
  
 Time to get kmesh              0.017 (sec)
 *============================================================================*
 |                              MEMORY ESTIMATE                               |
 |         Maximum RAM allocated during each phase of the calculation         |
 *============================================================================*
 |                        Disentanglement           51.91 Mb                  |
 |                            Wannierise:           10.54 Mb                  |
 |                          plot_wannier:           10.54 Mb                  |
 *----------------------------------------------------------------------------*
  
 Starting a new Wannier90 calculation ...


 Reading overlaps from iron.mmn    :  Created on 22Jul2026 at  1:16:15

 Reading projections from iron.amn :  Created on 22Jul2026 at  1:16:13

 Time to read overlaps          1.524 (sec)

 *------------------------------- DISENTANGLE --------------------------------*
 +----------------------------------------------------------------------------+
 |                              Energy  Windows                               |
 |                              ---------------                               |
 |                   Outer:    9.16108  to  110.75554  (eV)                   |
 |                   Inner: -200.00000  to   18.22370  (eV)                   |
 +----------------------------------------------------------------------------+
   Number of target bands to extract:   18

                   Unitarised projection of Wannier functions                  
                   ------------------------------------------                  
   A_mn = <psi_m|g_n> --> S = A.A^+ --> U = S^-1/2.A
   In dis_project... done
   Using an inner window (linner = T)
   In dis_proj_froz... done

                   Extraction of optimally-connected subspace                  
                   ------------------------------------------                  
 +---------------------------------------------------------------------+<-- DIS
 |  Iter     Omega_I(i-1)      Omega_I(i)      Delta (frac.)    Time   |<-- DIS
 +---------------------------------------------------------------------+<-- DIS
       1       9.26910832       8.67440531       6.856E-02      0.00    <-- DIS
       2       8.91723177       8.47076806       5.271E-02      0.07    <-- DIS
       3       8.67882127       8.32121707       4.297E-02      0.14    <-- DIS
       4       8.49230763       8.20867634       3.455E-02      0.22    <-- DIS
       5       8.34757007       8.12223217       2.774E-02      0.29    <-- DIS
       6       8.23506129       8.05468044       2.239E-02      0.36    <-- DIS
       7       8.14700771       8.00113322       1.823E-02      0.43    <-- DIS
       8       8.07745697       7.95818678       1.499E-02      0.50    <-- DIS
       9       8.02197266       7.92341173       1.244E-02      0.57    <-- DIS
      10       7.97727904       7.89503371       1.042E-02      0.64    <-- DIS
      11       7.94095526       7.87172928       8.794E-03      0.71    <-- DIS
      12       7.91119953       7.85249253       7.476E-03      0.78    <-- DIS
      13       7.88665635       7.83654616       6.394E-03      0.86    <-- DIS
      14       7.86629307       7.82328095       5.498E-03      0.93    <-- DIS
      15       7.84931262       7.81221352       4.749E-03      1.00    <-- DIS
      16       7.83509181       7.80295651       4.118E-03      1.07    <-- DIS
      17       7.82313764       7.79519680       3.584E-03      1.14    <-- DIS
      18       7.81305593       7.78867955       3.130E-03      1.21    <-- DIS
      19       7.80452857       7.78319613       2.741E-03      1.28    <-- DIS
      20       7.79729683       7.77857498       2.407E-03      1.35    <-- DIS
      21       7.79114882       7.77467442       2.119E-03      1.43    <-- DIS
      22       7.78591006       7.77137711       1.870E-03      1.50    <-- DIS
      23       7.78143622       7.76858560       1.654E-03      1.57    <-- DIS
      24       7.77760738       7.76621878       1.466E-03      1.64    <-- DIS
      25       7.77432360       7.76420899       1.303E-03      1.71    <-- DIS
      26       7.77150139       7.76249976       1.160E-03      1.78    <-- DIS
      27       7.76907074       7.76104381       1.034E-03      1.85    <-- DIS
      28       7.76697292       7.75980158       9.242E-04      1.92    <-- DIS
      29       7.76515849       7.75873989       8.273E-04      1.99    <-- DIS
      30       7.76358580       7.75783090       7.418E-04      2.06    <-- DIS
      31       7.76221967       7.75705120       6.663E-04      2.14    <-- DIS
      32       7.76103038       7.75638114       5.994E-04      2.21    <-- DIS
      33       7.75999275       7.75580415       5.401E-04      2.28    <-- DIS
      34       7.75908544       7.75530628       4.873E-04      2.35    <-- DIS
      35       7.75829031       7.75487579       4.403E-04      2.42    <-- DIS
      36       7.75759195       7.75450273       3.984E-04      2.49    <-- DIS
      37       7.75697721       7.75417872       3.609E-04      2.56    <-- DIS
      38       7.75643490       7.75389667       3.273E-04      2.63    <-- DIS
      39       7.75595543       7.75365057       2.973E-04      2.70    <-- DIS
      40       7.75553061       7.75343533       2.702E-04      2.78    <-- DIS
      41       7.75515341       7.75324663       2.459E-04      2.85    <-- DIS
      42       7.75481780       7.75308080       2.240E-04      2.92    <-- DIS
      43       7.75451859       7.75293472       2.043E-04      2.99    <-- DIS
      44       7.75425130       7.75280572       1.865E-04      3.06    <-- DIS
      45       7.75401206       7.75269154       1.703E-04      3.13    <-- DIS
      46       7.75379755       7.75259023       1.557E-04      3.20    <-- DIS
      47       7.75360484       7.75250014       1.425E-04      3.27    <-- DIS
      48       7.75343144       7.75241983       1.305E-04      3.35    <-- DIS
      49       7.75327514       7.75234809       1.196E-04      3.42    <-- DIS
      50       7.75313403       7.75228386       1.097E-04      3.49    <-- DIS
      51       7.75300645       7.75222624       1.006E-04      3.56    <-- DIS
      52       7.75289094       7.75217444       9.243E-05      3.63    <-- DIS
      53       7.75278619       7.75212778       8.493E-05      3.70    <-- DIS
      54       7.75269109       7.75208567       7.810E-05      3.77    <-- DIS
      55       7.75260465       7.75204760       7.186E-05      3.84    <-- DIS
      56       7.75252597       7.75201313       6.616E-05      3.91    <-- DIS
      57       7.75245428       7.75198186       6.094E-05      3.99    <-- DIS
      58       7.75238890       7.75195346       5.617E-05      4.06    <-- DIS
      59       7.75232920       7.75192761       5.180E-05      4.13    <-- DIS
      60       7.75227464       7.75190407       4.780E-05      4.20    <-- DIS
      61       7.75222473       7.75188260       4.414E-05      4.27    <-- DIS
      62       7.75217904       7.75186299       4.077E-05      4.34    <-- DIS
      63       7.75213718       7.75184506       3.768E-05      4.41    <-- DIS
      64       7.75209880       7.75182866       3.485E-05      4.49    <-- DIS
      65       7.75206358       7.75181362       3.224E-05      4.56    <-- DIS
      66       7.75203124       7.75179984       2.985E-05      4.63    <-- DIS
      67       7.75200152       7.75178719       2.765E-05      4.70    <-- DIS
      68       7.75197420       7.75177557       2.562E-05      4.77    <-- DIS
      69       7.75194907       7.75176490       2.376E-05      4.84    <-- DIS
      70       7.75192594       7.75175508       2.204E-05      4.92    <-- DIS
      71       7.75190463       7.75174604       2.046E-05      4.99    <-- DIS
      72       7.75188500       7.75173772       1.900E-05      5.06    <-- DIS
      73       7.75186691       7.75173005       1.765E-05      5.13    <-- DIS
      74       7.75185022       7.75172298       1.641E-05      5.20    <-- DIS
      75       7.75183482       7.75171647       1.527E-05      5.27    <-- DIS
      76       7.75182060       7.75171045       1.421E-05      5.34    <-- DIS
      77       7.75180747       7.75170490       1.323E-05      5.41    <-- DIS
      78       7.75179534       7.75169978       1.233E-05      5.49    <-- DIS
      79       7.75178413       7.75169505       1.149E-05      5.56    <-- DIS
      80       7.75177376       7.75169068       1.072E-05      5.63    <-- DIS
      81       7.75176417       7.75168664       1.000E-05      5.70    <-- DIS
      82       7.75175529       7.75168290       9.339E-06      5.77    <-- DIS
      83       7.75174708       7.75167945       8.724E-06      5.84    <-- DIS
      84       7.75173947       7.75167626       8.155E-06      5.91    <-- DIS
      85       7.75173242       7.75167330       7.627E-06      5.98    <-- DIS
      86       7.75172589       7.75167057       7.137E-06      6.05    <-- DIS
      87       7.75171984       7.75166804       6.682E-06      6.13    <-- DIS
      88       7.75171423       7.75166570       6.260E-06      6.20    <-- DIS
      89       7.75170902       7.75166354       5.867E-06      6.27    <-- DIS
      90       7.75170419       7.75166153       5.502E-06      6.34    <-- DIS
      91       7.75169970       7.75165968       5.163E-06      6.41    <-- DIS
      92       7.75169553       7.75165796       4.847E-06      6.48    <-- DIS
      93       7.75169166       7.75165637       4.553E-06      6.55    <-- DIS
      94       7.75168807       7.75165489       4.280E-06      6.62    <-- DIS
      95       7.75168472       7.75165353       4.024E-06      6.70    <-- DIS
      96       7.75168162       7.75165226       3.786E-06      6.77    <-- DIS
      97       7.75167872       7.75165109       3.565E-06      6.84    <-- DIS
      98       7.75167603       7.75165001       3.357E-06      6.91    <-- DIS
      99       7.75167353       7.75164900       3.164E-06      6.98    <-- DIS
     100       7.75167119       7.75164807       2.983E-06      7.05    <-- DIS
     101       7.75166902       7.75164721       2.814E-06      7.12    <-- DIS
     102       7.75166700       7.75164641       2.656E-06      7.20    <-- DIS
     103       7.75166511       7.75164566       2.508E-06      7.27    <-- DIS
     104       7.75166335       7.75164498       2.370E-06      7.34    <-- DIS
     105       7.75166171       7.75164434       2.240E-06      7.41    <-- DIS
     106       7.75166017       7.75164375       2.119E-06      7.48    <-- DIS
     107       7.75165874       7.75164320       2.005E-06      7.55    <-- DIS
     108       7.75165741       7.75164269       1.898E-06      7.62    <-- DIS
     109       7.75165616       7.75164222       1.797E-06      7.69    <-- DIS
     110       7.75165499       7.75164179       1.703E-06      7.77    <-- DIS
     111       7.75165390       7.75164138       1.614E-06      7.84    <-- DIS
     112       7.75165288       7.75164101       1.531E-06      7.91    <-- DIS
     113       7.75165192       7.75164066       1.453E-06      7.98    <-- DIS
     114       7.75165103       7.75164034       1.379E-06      8.05    <-- DIS
     115       7.75165019       7.75164004       1.309E-06      8.12    <-- DIS
     116       7.75164941       7.75163976       1.244E-06      8.19    <-- DIS
     117       7.75164867       7.75163951       1.182E-06      8.27    <-- DIS
     118       7.75164798       7.75163927       1.124E-06      8.34    <-- DIS
     119       7.75164734       7.75163905       1.069E-06      8.41    <-- DIS
     120       7.75164673       7.75163884       1.017E-06      8.48    <-- DIS
     121       7.75164616       7.75163865       9.682E-07      8.55    <-- DIS
     122       7.75164562       7.75163848       9.219E-07      8.62    <-- DIS
     123       7.75164512       7.75163831       8.781E-07      8.69    <-- DIS
     124       7.75164465       7.75163816       8.367E-07      8.76    <-- DIS
     125       7.75164420       7.75163802       7.975E-07      8.84    <-- DIS
     126       7.75164379       7.75163789       7.604E-07      8.91    <-- DIS
     127       7.75164339       7.75163777       7.252E-07      8.98    <-- DIS
     128       7.75164302       7.75163766       6.919E-07      9.05    <-- DIS
     129       7.75164267       7.75163756       6.603E-07      9.12    <-- DIS
     130       7.75164235       7.75163746       6.304E-07      9.19    <-- DIS
     131       7.75164204       7.75163737       6.019E-07      9.26    <-- DIS
     132       7.75164174       7.75163729       5.749E-07      9.33    <-- DIS
     133       7.75164147       7.75163721       5.493E-07      9.41    <-- DIS
     134       7.75164121       7.75163714       5.250E-07      9.48    <-- DIS
     135       7.75164096       7.75163707       5.018E-07      9.55    <-- DIS
     136       7.75164073       7.75163701       4.798E-07      9.62    <-- DIS
     137       7.75164051       7.75163695       4.589E-07      9.69    <-- DIS
     138       7.75164030       7.75163690       4.390E-07      9.76    <-- DIS
     139       7.75164011       7.75163685       4.200E-07      9.83    <-- DIS
     140       7.75163992       7.75163681       4.019E-07      9.90    <-- DIS
     141       7.75163975       7.75163676       3.847E-07      9.98    <-- DIS
     142       7.75163958       7.75163673       3.683E-07     10.05    <-- DIS
     143       7.75163942       7.75163669       3.527E-07     10.12    <-- DIS
     144       7.75163927       7.75163666       3.378E-07     10.19    <-- DIS
     145       7.75163913       7.75163662       3.236E-07     10.26    <-- DIS
     146       7.75163900       7.75163660       3.101E-07     10.33    <-- DIS
     147       7.75163887       7.75163657       2.971E-07     10.40    <-- DIS
     148       7.75163875       7.75163654       2.848E-07     10.47    <-- DIS
     149       7.75163864       7.75163652       2.730E-07     10.54    <-- DIS
     150       7.75163853       7.75163650       2.617E-07     10.62    <-- DIS
     151       7.75163842       7.75163648       2.510E-07     10.69    <-- DIS
     152       7.75163833       7.75163646       2.407E-07     10.76    <-- DIS
     153       7.75163823       7.75163644       2.308E-07     10.83    <-- DIS
     154       7.75163814       7.75163643       2.215E-07     10.90    <-- DIS
     155       7.75163806       7.75163641       2.125E-07     10.97    <-- DIS
     156       7.75163798       7.75163640       2.039E-07     11.04    <-- DIS
     157       7.75163790       7.75163639       1.956E-07     11.11    <-- DIS
     158       7.75163783       7.75163637       1.878E-07     11.18    <-- DIS
     159       7.75163776       7.75163636       1.802E-07     11.26    <-- DIS
     160       7.75163769       7.75163635       1.730E-07     11.33    <-- DIS
     161       7.75163763       7.75163634       1.661E-07     11.40    <-- DIS
     162       7.75163757       7.75163634       1.595E-07     11.47    <-- DIS
     163       7.75163751       7.75163633       1.532E-07     11.54    <-- DIS
     164       7.75163746       7.75163632       1.471E-07     11.61    <-- DIS
     165       7.75163741       7.75163631       1.413E-07     11.68    <-- DIS
     166       7.75163736       7.75163631       1.357E-07     11.75    <-- DIS
     167       7.75163731       7.75163630       1.304E-07     11.82    <-- DIS
     168       7.75163727       7.75163629       1.252E-07     11.90    <-- DIS
     169       7.75163722       7.75163629       1.203E-07     11.97    <-- DIS
     170       7.75163718       7.75163628       1.156E-07     12.04    <-- DIS
     171       7.75163714       7.75163628       1.111E-07     12.11    <-- DIS
     172       7.75163710       7.75163628       1.068E-07     12.18    <-- DIS
     173       7.75163707       7.75163627       1.026E-07     12.25    <-- DIS
     174       7.75163703       7.75163627       9.862E-08     12.32    <-- DIS
     175       7.75163700       7.75163627       9.479E-08     12.39    <-- DIS
     176       7.75163697       7.75163626       9.112E-08     12.47    <-- DIS
     177       7.75163694       7.75163626       8.759E-08     12.54    <-- DIS
     178       7.75163691       7.75163626       8.421E-08     12.61    <-- DIS
     179       7.75163688       7.75163625       8.096E-08     12.68    <-- DIS
     180       7.75163686       7.75163625       7.784E-08     12.75    <-- DIS
     181       7.75163683       7.75163625       7.485E-08     12.82    <-- DIS
     182       7.75163681       7.75163625       7.197E-08     12.89    <-- DIS
     183       7.75163678       7.75163625       6.921E-08     12.96    <-- DIS
     184       7.75163676       7.75163624       6.656E-08     13.04    <-- DIS
     185       7.75163674       7.75163624       6.401E-08     13.11    <-- DIS
     186       7.75163672       7.75163624       6.156E-08     13.18    <-- DIS
     187       7.75163670       7.75163624       5.921E-08     13.25    <-- DIS
     188       7.75163668       7.75163624       5.695E-08     13.32    <-- DIS
     189       7.75163666       7.75163624       5.478E-08     13.39    <-- DIS
     190       7.75163664       7.75163624       5.269E-08     13.46    <-- DIS
     191       7.75163663       7.75163624       5.069E-08     13.53    <-- DIS
     192       7.75163661       7.75163623       4.876E-08     13.60    <-- DIS
     193       7.75163660       7.75163623       4.691E-08     13.67    <-- DIS
     194       7.75163658       7.75163623       4.513E-08     13.74    <-- DIS
     195       7.75163657       7.75163623       4.342E-08     13.82    <-- DIS
     196       7.75163656       7.75163623       4.177E-08     13.89    <-- DIS
     197       7.75163654       7.75163623       4.019E-08     13.96    <-- DIS
     198       7.75163653       7.75163623       3.867E-08     14.03    <-- DIS
     199       7.75163652       7.75163623       3.721E-08     14.10    <-- DIS
     200       7.75163651       7.75163623       3.580E-08     14.17    <-- DIS

     <<< Warning: Maximum number of disentanglement iterations reached >>>
          <<< Disentanglement convergence criteria not satisfied >>>

        Final Omega_I     7.75163623 (Ang^2)

 +----------------------------------------------------------------------------+

 Time to disentangle bands     14.310 (sec)

 Writing checkpoint file iron.chk... done


 *------------------------------- WANNIERISE ---------------------------------*
 +--------------------------------------------------------------------+<-- CONV
 | Iter  Delta Spread     RMS Gradient      Spread (Ang^2)      Time  |<-- CONV
 +--------------------------------------------------------------------+<-- CONV

 ------------------------------------------------------------------------------
 Initial State
  WF centre and spread    1  ( -0.535071,  0.000000, -0.000000 )     0.61557631
  WF centre and spread    2  ( -0.609150, -0.000000, -0.000000 )     0.59010560
  WF centre and spread    3  (  0.535071,  0.000000, -0.000000 )     0.61557632
  WF centre and spread    4  (  0.609150, -0.000000,  0.000000 )     0.59010550
  WF centre and spread    5  (  0.000000, -0.535071, -0.000000 )     0.61557631
  WF centre and spread    6  ( -0.000000, -0.609150,  0.000000 )     0.59010555
  WF centre and spread    7  ( -0.000000,  0.535071, -0.000000 )     0.61557632
  WF centre and spread    8  ( -0.000000,  0.609150, -0.000000 )     0.59010549
  WF centre and spread    9  (  0.000000,  0.000000, -0.534827 )     0.61463646
  WF centre and spread   10  ( -0.000000, -0.000000, -0.608978 )     0.59027866
  WF centre and spread   11  (  0.000000,  0.000000,  0.534828 )     0.61463630
  WF centre and spread   12  (  0.000000, -0.000000,  0.608978 )     0.59027871
  WF centre and spread   13  ( -0.000000,  0.000000,  0.000000 )     0.45138536
  WF centre and spread   14  (  0.000000, -0.000000, -0.000000 )     0.49196080
  WF centre and spread   15  (  0.000000, -0.000000,  0.000000 )     0.45138536
  WF centre and spread   16  ( -0.000000,  0.000000, -0.000000 )     0.49196069
  WF centre and spread   17  ( -0.000000, -0.000000, -0.000000 )     0.45147661
  WF centre and spread   18  (  0.000000,  0.000000,  0.000000 )     0.49191996
  Sum of centres and spreads (  0.000000,  0.000000,  0.000000 )    10.06264630

      0     0.101E+02     0.0000000000       10.0626463034      14.24  <-- CONV
        O_D=      0.0966971 O_OD=      2.2143129 O_TOT=     10.0626463 <-- SPRD
 ------------------------------------------------------------------------------
 Cycle:      1
  WF centre and spread    1  ( -0.536479,  0.000000, -0.000000 )     0.58962082
  WF centre and spread    2  ( -0.610781, -0.000000, -0.000000 )     0.56359510
  WF centre and spread    3  (  0.536479,  0.000000, -0.000000 )     0.58962082
  WF centre and spread    4  (  0.610782, -0.000000,  0.000000 )     0.56359502
  WF centre and spread    5  (  0.000000, -0.536479, -0.000000 )     0.58962082
  WF centre and spread    6  ( -0.000000, -0.610781,  0.000000 )     0.56359504
  WF centre and spread    7  (  0.000000,  0.536479, -0.000000 )     0.58962083
  WF centre and spread    8  ( -0.000000,  0.610781, -0.000000 )     0.56359500
  WF centre and spread    9  (  0.000000,  0.000000, -0.536213 )     0.58866376
  WF centre and spread   10  ( -0.000000, -0.000000, -0.610607 )     0.56376513
  WF centre and spread   11  (  0.000000,  0.000000,  0.536214 )     0.58866364
  WF centre and spread   12  (  0.000000, -0.000000,  0.610607 )     0.56376517
  WF centre and spread   13  ( -0.000000,  0.000000,  0.000000 )     0.44455587
  WF centre and spread   14  (  0.000000, -0.000000, -0.000000 )     0.48506234
  WF centre and spread   15  (  0.000000, -0.000000,  0.000000 )     0.44455587
  WF centre and spread   16  ( -0.000000,  0.000000, -0.000000 )     0.48506222
  WF centre and spread   17  ( -0.000000, -0.000000, -0.000000 )     0.44468921
  WF centre and spread   18  (  0.000000,  0.000000,  0.000000 )     0.48502195
  Sum of centres and spreads (  0.000000,  0.000000,  0.000000 )     9.70666860

      1    -0.356E+00     0.3126786831        9.7066686031      14.26  <-- CONV
        O_D=      0.0037246 O_OD=      1.9513078 O_TOT=      9.7066686 <-- SPRD
 Delta: O_D= -0.9297257E-01 O_OD= -0.2630051E+00 O_TOT= -0.3559777E+00 <-- DLTA
 ------------------------------------------------------------------------------
 Cycle:      2
  WF centre and spread    1  ( -0.536555,  0.000000, -0.000000 )     0.58886588
  WF centre and spread    2  ( -0.610843, -0.000000, -0.000000 )     0.56283629
  WF centre and spread    3  (  0.536555,  0.000000, -0.000000 )     0.58886588
  WF centre and spread    4  (  0.610843, -0.000000,  0.000000 )     0.56283621
  WF centre and spread    5  (  0.000000, -0.536555, -0.000000 )     0.58886587
  WF centre and spread    6  ( -0.000000, -0.610843,  0.000000 )     0.56283623
  WF centre and spread    7  (  0.000000,  0.536555, -0.000000 )     0.58886588
  WF centre and spread    8  ( -0.000000,  0.610843, -0.000000 )     0.56283619
  WF centre and spread    9  (  0.000000,  0.000000, -0.536258 )     0.58792580
  WF centre and spread   10  ( -0.000000, -0.000000, -0.610668 )     0.56300642
  WF centre and spread   11  (  0.000000,  0.000000,  0.536259 )     0.58792569
  WF centre and spread   12  (  0.000000, -0.000000,  0.610668 )     0.56300646
  WF centre and spread   13  ( -0.000000,  0.000000,  0.000000 )     0.44418440
  WF centre and spread   14  (  0.000000, -0.000000, -0.000000 )     0.48453071
  WF centre and spread   15  (  0.000000, -0.000000,  0.000000 )     0.44418440
  WF centre and spread   16  ( -0.000000,  0.000000, -0.000000 )     0.48453060
  WF centre and spread   17  ( -0.000000, -0.000000, -0.000000 )     0.44431859
  WF centre and spread   18  (  0.000000,  0.000000,  0.000000 )     0.48449022
  Sum of centres and spreads (  0.000000,  0.000000,  0.000000 )     9.69491173

      2    -0.118E-01     0.0680915341        9.6949117335      14.27  <-- CONV
        O_D=      0.0025102 O_OD=      1.9407653 O_TOT=      9.6949117 <-- SPRD
 Delta: O_D= -0.1214380E-02 O_OD= -0.1054249E-01 O_TOT= -0.1175687E-01 <-- DLTA
 ------------------------------------------------------------------------------
 Cycle:      3
  WF centre and spread    1  ( -0.536586,  0.000000, -0.000000 )     0.58863987
  WF centre and spread    2  ( -0.610874, -0.000000, -0.000000 )     0.56262978
  WF centre and spread    3  (  0.536586,  0.000000, -0.000000 )     0.58863987
  WF centre and spread    4  (  0.610875, -0.000000,  0.000000 )     0.56262971
  WF centre and spread    5  (  0.000000, -0.536586, -0.000000 )     0.58863987
  WF centre and spread    6  ( -0.000000, -0.610874,  0.000000 )     0.56262973
  WF centre and spread    7  (  0.000000,  0.536586, -0.000000 )     0.58863988
  WF centre and spread    8  ( -0.000000,  0.610875, -0.000000 )     0.56262969
  WF centre and spread    9  (  0.000000,  0.000000, -0.536258 )     0.58770820
  WF centre and spread   10  ( -0.000000, -0.000000, -0.610698 )     0.56280016
  WF centre and spread   11  (  0.000000,  0.000000,  0.536259 )     0.58770810
  WF centre and spread   12  (  0.000000, -0.000000,  0.610698 )     0.56280019
  WF centre and spread   13  ( -0.000000,  0.000000,  0.000000 )     0.44428299
  WF centre and spread   14  (  0.000000, -0.000000, -0.000000 )     0.48454668
  WF centre and spread   15  (  0.000000, -0.000000,  0.000000 )     0.44428299
  WF centre and spread   16  ( -0.000000,  0.000000, -0.000000 )     0.48454657
  WF centre and spread   17  ( -0.000000, -0.000000, -0.000000 )     0.44441805
  WF centre and spread   18  (  0.000000,  0.000000,  0.000000 )     0.48450601
  Sum of centres and spreads (  0.000000,  0.000000,  0.000000 )     9.69267831

      3    -0.223E-02     0.0295917750        9.6926783119      14.29  <-- CONV
        O_D=      0.0023007 O_OD=      1.9387414 O_TOT=      9.6926783 <-- SPRD
 Delta: O_D= -0.2094583E-03 O_OD= -0.2023963E-02 O_TOT= -0.2233422E-02 <-- DLTA
 ------------------------------------------------------------------------------
 Cycle:      4
  WF centre and spread    1  ( -0.536594,  0.000000, -0.000000 )     0.58861039
  WF centre and spread    2  ( -0.610879, -0.000000, -0.000000 )     0.56260923
  WF centre and spread    3  (  0.536594,  0.000000, -0.000000 )     0.58861039
  WF centre and spread    4  (  0.610880, -0.000000,  0.000000 )     0.56260916
  WF centre and spread    5  (  0.000000, -0.536594, -0.000000 )     0.58861039
  WF centre and spread    6  ( -0.000000, -0.610879,  0.000000 )     0.56260918
  WF centre and spread    7  (  0.000000,  0.536594, -0.000000 )     0.58861039
  WF centre and spread    8  ( -0.000000,  0.610880, -0.000000 )     0.56260914
  WF centre and spread    9  (  0.000000,  0.000000, -0.536248 )     0.58768156
  WF centre and spread   10  ( -0.000000, -0.000000, -0.610702 )     0.56277984
  WF centre and spread   11  (  0.000000,  0.000000,  0.536249 )     0.58768147
  WF centre and spread   12  (  0.000000, -0.000000,  0.610702 )     0.56277987
  WF centre and spread   13  ( -0.000000,  0.000000,  0.000000 )     0.44431579
  WF centre and spread   14  (  0.000000, -0.000000, -0.000000 )     0.48456580
  WF centre and spread   15  (  0.000000, -0.000000,  0.000000 )     0.44431579
  WF centre and spread   16  ( -0.000000,  0.000000, -0.000000 )     0.48456569
  WF centre and spread   17  ( -0.000000, -0.000000, -0.000000 )     0.44445091
  WF centre and spread   18  (  0.000000,  0.000000,  0.000000 )     0.48452486
  Sum of centres and spreads (  0.000000,  0.000000,  0.000000 )     9.69253985

      4    -0.138E-03     0.0084529330        9.6925398520      14.31  <-- CONV
        O_D=      0.0022865 O_OD=      1.9386171 O_TOT=      9.6925399 <-- SPRD
 Delta: O_D= -0.1417621E-04 O_OD= -0.1242836E-03 O_TOT= -0.1384598E-03 <-- DLTA
 ------------------------------------------------------------------------------
 Cycle:      5
  WF centre and spread    1  ( -0.536604,  0.000000, -0.000000 )     0.58860545
  WF centre and spread    2  ( -0.610881, -0.000000, -0.000000 )     0.56260647
  WF centre and spread    3  (  0.536604,  0.000000, -0.000000 )     0.58860545
  WF centre and spread    4  (  0.610882, -0.000000,  0.000000 )     0.56260641
  WF centre and spread    5  (  0.000000, -0.536604, -0.000000 )     0.58860545
  WF centre and spread    6  ( -0.000000, -0.610881,  0.000000 )     0.56260642
  WF centre and spread    7  (  0.000000,  0.536604, -0.000000 )     0.58860545
  WF centre and spread    8  ( -0.000000,  0.610882, -0.000000 )     0.56260639
  WF centre and spread    9  (  0.000000,  0.000000, -0.536236 )     0.58767878
  WF centre and spread   10  ( -0.000000, -0.000000, -0.610703 )     0.56277736
  WF centre and spread   11  (  0.000000,  0.000000,  0.536237 )     0.58767871
  WF centre and spread   12  (  0.000000, -0.000000,  0.610703 )     0.56277739
  WF centre and spread   13  ( -0.000000,  0.000000,  0.000000 )     0.44432212
  WF centre and spread   14  (  0.000000, -0.000000, -0.000000 )     0.48456969
  WF centre and spread   15  (  0.000000, -0.000000,  0.000000 )     0.44432212
  WF centre and spread   16  ( -0.000000,  0.000000, -0.000000 )     0.48456958
  WF centre and spread   17  ( -0.000000, -0.000000, -0.000000 )     0.44445716
  WF centre and spread   18  (  0.000000,  0.000000,  0.000000 )     0.48452842
  Sum of centres and spreads (  0.000000,  0.000000,  0.000000 )     9.69252882

      5    -0.110E-04     0.0021487645        9.6925288237      14.32  <-- CONV
        O_D=      0.0022847 O_OD=      1.9386079 O_TOT=      9.6925288 <-- SPRD
 Delta: O_D= -0.1830833E-05 O_OD= -0.9197488E-05 O_TOT= -0.1102832E-04 <-- DLTA
 ------------------------------------------------------------------------------
 Cycle:      6
  WF centre and spread    1  ( -0.536613,  0.000000, -0.000000 )     0.58860476
  WF centre and spread    2  ( -0.610882, -0.000000, -0.000000 )     0.56260677
  WF centre and spread    3  (  0.536613,  0.000000, -0.000000 )     0.58860477
  WF centre and spread    4  (  0.610883, -0.000000,  0.000000 )     0.56260671
  WF centre and spread    5  (  0.000000, -0.536613, -0.000000 )     0.58860476
  WF centre and spread    6  ( -0.000000, -0.610882,  0.000000 )     0.56260672
  WF centre and spread    7  (  0.000000,  0.536613, -0.000000 )     0.58860477
  WF centre and spread    8  ( -0.000000,  0.610883, -0.000000 )     0.56260669
  WF centre and spread    9  (  0.000000,  0.000000, -0.536219 )     0.58768046
  WF centre and spread   10  ( -0.000000, -0.000000, -0.610702 )     0.56277801
  WF centre and spread   11  (  0.000000,  0.000000,  0.536220 )     0.58768040
  WF centre and spread   12  (  0.000000, -0.000000,  0.610702 )     0.56277804
  WF centre and spread   13  ( -0.000000,  0.000000,  0.000000 )     0.44432129
  WF centre and spread   14  (  0.000000, -0.000000, -0.000000 )     0.48456896
  WF centre and spread   15  (  0.000000, -0.000000,  0.000000 )     0.44432129
  WF centre and spread   16  ( -0.000000,  0.000000, -0.000000 )     0.48456884
  WF centre and spread   17  ( -0.000000, -0.000000, -0.000000 )     0.44445649
  WF centre and spread   18  (  0.000000,  0.000000,  0.000000 )     0.48452723
  Sum of centres and spreads (  0.000000,  0.000000,  0.000000 )     9.69252696

      6    -0.186E-05     0.0007644975        9.6925269614      14.34  <-- CONV
        O_D=      0.0022859 O_OD=      1.9386048 O_TOT=      9.6925270 <-- SPRD
 Delta: O_D=  0.1230801E-05 O_OD= -0.3093071E-05 O_TOT= -0.1862269E-05 <-- DLTA
 ------------------------------------------------------------------------------
 Cycle:      7
  WF centre and spread    1  ( -0.536621,  0.000000, -0.000000 )     0.58860485
  WF centre and spread    2  ( -0.610883, -0.000000, -0.000000 )     0.56260725
  WF centre and spread    3  (  0.536621,  0.000000, -0.000000 )     0.58860485
  WF centre and spread    4  (  0.610883, -0.000000,  0.000000 )     0.56260720
  WF centre and spread    5  (  0.000000, -0.536621, -0.000000 )     0.58860485
  WF centre and spread    6  ( -0.000000, -0.610883,  0.000000 )     0.56260720
  WF centre and spread    7  (  0.000000,  0.536621, -0.000000 )     0.58860485
  WF centre and spread    8  ( -0.000000,  0.610883, -0.000000 )     0.56260717
  WF centre and spread    9  (  0.000000,  0.000000, -0.536204 )     0.58768214
  WF centre and spread   10  ( -0.000000, -0.000000, -0.610702 )     0.56277881
  WF centre and spread   11  (  0.000000,  0.000000,  0.536204 )     0.58768211
  WF centre and spread   12  (  0.000000, -0.000000,  0.610702 )     0.56277883
  WF centre and spread   13  ( -0.000000,  0.000000,  0.000000 )     0.44431956
  WF centre and spread   14  (  0.000000, -0.000000, -0.000000 )     0.48456802
  WF centre and spread   15  (  0.000000, -0.000000,  0.000000 )     0.44431956
  WF centre and spread   16  ( -0.000000,  0.000000, -0.000000 )     0.48456791
  WF centre and spread   17  ( -0.000000, -0.000000, -0.000000 )     0.44445497
  WF centre and spread   18  (  0.000000,  0.000000,  0.000000 )     0.48452588
  Sum of centres and spreads (  0.000000,  0.000000,  0.000000 )     9.69252602

      7    -0.941E-06     0.0005188510        9.6925260205      14.35  <-- CONV
        O_D=      0.0022860 O_OD=      1.9386038 O_TOT=      9.6925260 <-- SPRD
 Delta: O_D=  0.7739968E-07 O_OD= -0.1018305E-05 O_TOT= -0.9409049E-06 <-- DLTA
 ------------------------------------------------------------------------------
 Cycle:      8
  WF centre and spread    1  ( -0.536674,  0.000000, -0.000000 )     0.58860391
  WF centre and spread    2  ( -0.610886, -0.000000, -0.000000 )     0.56260898
  WF centre and spread    3  (  0.536674,  0.000000, -0.000000 )     0.58860391
  WF centre and spread    4  (  0.610886, -0.000000,  0.000000 )     0.56260895
  WF centre and spread    5  (  0.000000, -0.536674, -0.000000 )     0.58860391
  WF centre and spread    6  ( -0.000000, -0.610886,  0.000000 )     0.56260894
  WF centre and spread    7  (  0.000000,  0.536674, -0.000000 )     0.58860391
  WF centre and spread    8  ( -0.000000,  0.610886,  0.000000 )     0.56260892
  WF centre and spread    9  (  0.000000,  0.000000, -0.536094 )     0.58769210
  WF centre and spread   10  ( -0.000000, -0.000000, -0.610696 )     0.56278273
  WF centre and spread   11  (  0.000000,  0.000000,  0.536095 )     0.58769216
  WF centre and spread   12  (  0.000000, -0.000000,  0.610696 )     0.56278275
  WF centre and spread   13  ( -0.000000,  0.000000,  0.000000 )     0.44431106
  WF centre and spread   14  (  0.000000, -0.000000, -0.000000 )     0.48456539
  WF centre and spread   15  (  0.000000, -0.000000,  0.000000 )     0.44431106
  WF centre and spread   16  ( -0.000000,  0.000000, -0.000000 )     0.48456528
  WF centre and spread   17  ( -0.000000, -0.000000, -0.000000 )     0.44444805
  WF centre and spread   18  (  0.000000,  0.000000,  0.000000 )     0.48452031
  Sum of centres and spreads (  0.000000,  0.000000,  0.000000 )     9.69252234

      8    -0.368E-05     0.0005431751        9.6925223416      14.37  <-- CONV
        O_D=      0.0022874 O_OD=      1.9385987 O_TOT=      9.6925223 <-- SPRD
 Delta: O_D=  0.1404781E-05 O_OD= -0.5083701E-05 O_TOT= -0.3678920E-05 <-- DLTA
 ------------------------------------------------------------------------------
 Cycle:      9
  WF centre and spread    1  ( -0.536675,  0.000000, -0.000000 )     0.58860220
  WF centre and spread    2  ( -0.610886, -0.000000, -0.000000 )     0.56260799
  WF centre and spread    3  (  0.536675,  0.000000, -0.000000 )     0.58860220
  WF centre and spread    4  (  0.610886, -0.000000,  0.000000 )     0.56260797
  WF centre and spread    5  (  0.000000, -0.536675, -0.000000 )     0.58860220
  WF centre and spread    6  ( -0.000000, -0.610886,  0.000000 )     0.56260795
  WF centre and spread    7  (  0.000000,  0.536675, -0.000000 )     0.58860219
  WF centre and spread    8  ( -0.000000,  0.610886,  0.000000 )     0.56260794
  WF centre and spread    9  (  0.000000,  0.000000, -0.536093 )     0.58769017
  WF centre and spread   10  ( -0.000000, -0.000000, -0.610697 )     0.56278178
  WF centre and spread   11  (  0.000000,  0.000000,  0.536094 )     0.58769024
  WF centre and spread   12  (  0.000000, -0.000000,  0.610697 )     0.56278179
  WF centre and spread   13  ( -0.000000,  0.000000,  0.000000 )     0.44431404
  WF centre and spread   14  (  0.000000, -0.000000, -0.000000 )     0.48456727
  WF centre and spread   15  (  0.000000, -0.000000,  0.000000 )     0.44431404
  WF centre and spread   16  ( -0.000000,  0.000000, -0.000000 )     0.48456716
  WF centre and spread   17  ( -0.000000, -0.000000, -0.000000 )     0.44445111
  WF centre and spread   18  (  0.000000,  0.000000,  0.000000 )     0.48452203
  Sum of centres and spreads (  0.000000,  0.000000,  0.000000 )     9.69252027

      9    -0.207E-05     0.0009771917        9.6925202740      14.39  <-- CONV
        O_D=      0.0022859 O_OD=      1.9385982 O_TOT=      9.6925203 <-- SPRD
 Delta: O_D= -0.1538074E-05 O_OD= -0.5295750E-06 O_TOT= -0.2067649E-05 <-- DLTA
 ------------------------------------------------------------------------------
 Cycle:     10
  WF centre and spread    1  ( -0.536677,  0.000000, -0.000000 )     0.58860122
  WF centre and spread    2  ( -0.610886, -0.000000, -0.000000 )     0.56260745
  WF centre and spread    3  (  0.536677,  0.000000, -0.000000 )     0.58860122
  WF centre and spread    4  (  0.610887, -0.000000,  0.000000 )     0.56260742
  WF centre and spread    5  (  0.000000, -0.536677, -0.000000 )     0.58860122
  WF centre and spread    6  ( -0.000000, -0.610886,  0.000000 )     0.56260741
  WF centre and spread    7  (  0.000000,  0.536677, -0.000000 )     0.58860122
  WF centre and spread    8  ( -0.000000,  0.610887,  0.000000 )     0.56260739
  WF centre and spread    9  (  0.000000,  0.000000, -0.536091 )     0.58768899
  WF centre and spread   10  ( -0.000000, -0.000000, -0.610697 )     0.56278126
  WF centre and spread   11  (  0.000000,  0.000000,  0.536092 )     0.58768906
  WF centre and spread   12  (  0.000000, -0.000000,  0.610697 )     0.56278127
  WF centre and spread   13  ( -0.000000,  0.000000,  0.000000 )     0.44431579
  WF centre and spread   14  (  0.000000, -0.000000, -0.000000 )     0.48456855
  WF centre and spread   15  (  0.000000, -0.000000,  0.000000 )     0.44431579
  WF centre and spread   16  ( -0.000000,  0.000000, -0.000000 )     0.48456844
  WF centre and spread   17  ( -0.000000, -0.000000, -0.000000 )     0.44445300
  WF centre and spread   18  (  0.000000,  0.000000,  0.000000 )     0.48452308
  Sum of centres and spreads (  0.000000,  0.000000,  0.000000 )     9.69251978

     10    -0.491E-06     0.0004214792        9.6925197832      14.40  <-- CONV
        O_D=      0.0022856 O_OD=      1.9385979 O_TOT=      9.6925198 <-- SPRD
 Delta: O_D= -0.2661880E-06 O_OD= -0.2245771E-06 O_TOT= -0.4907651E-06 <-- DLTA
 ------------------------------------------------------------------------------
 Cycle:     11
  WF centre and spread    1  ( -0.536684,  0.000000, -0.000000 )     0.58860055
  WF centre and spread    2  ( -0.610887, -0.000000, -0.000000 )     0.56260761
  WF centre and spread    3  (  0.536683,  0.000000, -0.000000 )     0.58860055
  WF centre and spread    4  (  0.610887, -0.000000,  0.000000 )     0.56260757
  WF centre and spread    5  (  0.000000, -0.536684, -0.000000 )     0.58860056
  WF centre and spread    6  ( -0.000000, -0.610887,  0.000000 )     0.56260757
  WF centre and spread    7  (  0.000000,  0.536683, -0.000000 )     0.58860055
  WF centre and spread    8  ( -0.000000,  0.610887,  0.000000 )     0.56260754
  WF centre and spread    9  (  0.000000,  0.000000, -0.536081 )     0.58768789
  WF centre and spread   10  ( -0.000000, -0.000000, -0.610698 )     0.56278152
  WF centre and spread   11  (  0.000000,  0.000000,  0.536082 )     0.58768797
  WF centre and spread   12  (  0.000000, -0.000000,  0.610698 )     0.56278153
  WF centre and spread   13  ( -0.000000,  0.000000,  0.000000 )     0.44431601
  WF centre and spread   14  (  0.000000, -0.000000, -0.000000 )     0.48456940
  WF centre and spread   15  (  0.000000, -0.000000,  0.000000 )     0.44431601
  WF centre and spread   16  ( -0.000000,  0.000000, -0.000000 )     0.48456929
  WF centre and spread   17  ( -0.000000, -0.000000, -0.000000 )     0.44445390
  WF centre and spread   18  (  0.000000,  0.000000,  0.000000 )     0.48452284
  Sum of centres and spreads (  0.000000,  0.000000,  0.000000 )     9.69251887

     11    -0.916E-06     0.0002927721        9.6925188674      14.42  <-- CONV
        O_D=      0.0022865 O_OD=      1.9385961 O_TOT=      9.6925189 <-- SPRD
 Delta: O_D=  0.8988235E-06 O_OD= -0.1814631E-05 O_TOT= -0.9158076E-06 <-- DLTA
 ------------------------------------------------------------------------------
 Cycle:     12
  WF centre and spread    1  ( -0.536683,  0.000000, -0.000000 )     0.58860110
  WF centre and spread    2  ( -0.610887, -0.000000, -0.000000 )     0.56260807
  WF centre and spread    3  (  0.536683,  0.000000, -0.000000 )     0.58860109
  WF centre and spread    4  (  0.610887, -0.000000,  0.000000 )     0.56260803
  WF centre and spread    5  (  0.000000, -0.536684, -0.000000 )     0.58860110
  WF centre and spread    6  ( -0.000000, -0.610887,  0.000000 )     0.56260803
  WF centre and spread    7  (  0.000000,  0.536683, -0.000000 )     0.58860109
  WF centre and spread    8  ( -0.000000,  0.610887,  0.000000 )     0.56260801
  WF centre and spread    9  (  0.000000,  0.000000, -0.536080 )     0.58768881
  WF centre and spread   10  ( -0.000000, -0.000000, -0.610698 )     0.56278197
  WF centre and spread   11  (  0.000000,  0.000000,  0.536081 )     0.58768888
  WF centre and spread   12  (  0.000000, -0.000000,  0.610698 )     0.56278198
  WF centre and spread   13  ( -0.000000,  0.000000,  0.000000 )     0.44431448
  WF centre and spread   14  (  0.000000, -0.000000, -0.000000 )     0.48456853
  WF centre and spread   15  (  0.000000, -0.000000,  0.000000 )     0.44431448
  WF centre and spread   16  ( -0.000000,  0.000000, -0.000000 )     0.48456842
  WF centre and spread   17  ( -0.000000, -0.000000, -0.000000 )     0.44445235
  WF centre and spread   18  (  0.000000,  0.000000,  0.000000 )     0.48452187
  Sum of centres and spreads (  0.000000,  0.000000,  0.000000 )     9.69251828

     12    -0.584E-06     0.0005223612        9.6925182834      14.43  <-- CONV
        O_D=      0.0022863 O_OD=      1.9385957 O_TOT=      9.6925183 <-- SPRD
 Delta: O_D= -0.2121875E-06 O_OD= -0.3718454E-06 O_TOT= -0.5840329E-06 <-- DLTA
 ------------------------------------------------------------------------------
 Cycle:     13
  WF centre and spread    1  ( -0.536684,  0.000000, -0.000000 )     0.58860150
  WF centre and spread    2  ( -0.610886, -0.000000, -0.000000 )     0.56260846
  WF centre and spread    3  (  0.536684,  0.000000, -0.000000 )     0.58860150
  WF centre and spread    4  (  0.610887, -0.000000,  0.000000 )     0.56260843
  WF centre and spread    5  (  0.000000, -0.536684, -0.000000 )     0.58860150
  WF centre and spread    6  ( -0.000000, -0.610886,  0.000000 )     0.56260842
  WF centre and spread    7  (  0.000000,  0.536684, -0.000000 )     0.58860150
  WF centre and spread    8  ( -0.000000,  0.610887,  0.000000 )     0.56260840
  WF centre and spread    9  (  0.000000,  0.000000, -0.536078 )     0.58768972
  WF centre and spread   10  ( -0.000000, -0.000000, -0.610698 )     0.56278235
  WF centre and spread   11  (  0.000000,  0.000000,  0.536079 )     0.58768981
  WF centre and spread   12  (  0.000000, -0.000000,  0.610698 )     0.56278237
  WF centre and spread   13  ( -0.000000,  0.000000,  0.000000 )     0.44431307
  WF centre and spread   14  (  0.000000, -0.000000, -0.000000 )     0.48456799
  WF centre and spread   15  (  0.000000, -0.000000,  0.000000 )     0.44431307
  WF centre and spread   16  ( -0.000000,  0.000000, -0.000000 )     0.48456788
  WF centre and spread   17  ( -0.000000, -0.000000, -0.000000 )     0.44445093
  WF centre and spread   18  (  0.000000,  0.000000,  0.000000 )     0.48452112
  Sum of centres and spreads (  0.000000,  0.000000,  0.000000 )     9.69251801

     13    -0.269E-06     0.0002905350        9.6925180146      14.45  <-- CONV
        O_D=      0.0022861 O_OD=      1.9385957 O_TOT=      9.6925180 <-- SPRD
 Delta: O_D= -0.2585076E-06 O_OD= -0.1028885E-07 O_TOT= -0.2687965E-06 <-- DLTA
 ------------------------------------------------------------------------------
 Cycle:     14
  WF centre and spread    1  ( -0.536685,  0.000000, -0.000000 )     0.58860151
  WF centre and spread    2  ( -0.610886, -0.000000, -0.000000 )     0.56260885
  WF centre and spread    3  (  0.536685,  0.000000, -0.000000 )     0.58860150
  WF centre and spread    4  (  0.610886, -0.000000,  0.000000 )     0.56260882
  WF centre and spread    5  (  0.000000, -0.536685, -0.000000 )     0.58860151
  WF centre and spread    6  ( -0.000000, -0.610886,  0.000000 )     0.56260881
  WF centre and spread    7  (  0.000000,  0.536685, -0.000000 )     0.58860150
  WF centre and spread    8  ( -0.000000,  0.610886,  0.000000 )     0.56260879
  WF centre and spread    9  (  0.000000,  0.000000, -0.536073 )     0.58769075
  WF centre and spread   10  ( -0.000000, -0.000000, -0.610698 )     0.56278274
  WF centre and spread   11  (  0.000000,  0.000000,  0.536074 )     0.58769084
  WF centre and spread   12  ( -0.000000, -0.000000,  0.610697 )     0.56278276
  WF centre and spread   13  ( -0.000000,  0.000000,  0.000000 )     0.44431164
  WF centre and spread   14  (  0.000000, -0.000000, -0.000000 )     0.48456800
  WF centre and spread   15  (  0.000000, -0.000000,  0.000000 )     0.44431165
  WF centre and spread   16  ( -0.000000,  0.000000, -0.000000 )     0.48456789
  WF centre and spread   17  ( -0.000000, -0.000000, -0.000000 )     0.44444955
  WF centre and spread   18  (  0.000000,  0.000000,  0.000000 )     0.48452050
  Sum of centres and spreads (  0.000000,  0.000000,  0.000000 )     9.69251760

     14    -0.411E-06     0.0002433859        9.6925176037      14.47  <-- CONV
        O_D=      0.0022855 O_OD=      1.9385959 O_TOT=      9.6925176 <-- SPRD
 Delta: O_D= -0.5528926E-06 O_OD=  0.1420237E-06 O_TOT= -0.4108689E-06 <-- DLTA
 ------------------------------------------------------------------------------
 Cycle:     15
  WF centre and spread    1  ( -0.536692,  0.000000, -0.000000 )     0.58860096
  WF centre and spread    2  ( -0.610886, -0.000000, -0.000000 )     0.56261029
  WF centre and spread    3  (  0.536692,  0.000000, -0.000000 )     0.58860095
  WF centre and spread    4  (  0.610886, -0.000000,  0.000000 )     0.56261027
  WF centre and spread    5  (  0.000000, -0.536692, -0.000000 )     0.58860096
  WF centre and spread    6  ( -0.000000, -0.610886,  0.000000 )     0.56261025
  WF centre and spread    7  (  0.000000,  0.536692, -0.000000 )     0.58860095
  WF centre and spread    8  ( -0.000000,  0.610886,  0.000000 )     0.56261024
  WF centre and spread    9  (  0.000000,  0.000000, -0.536059 )     0.58769219
  WF centre and spread   10  ( -0.000000, -0.000000, -0.610698 )     0.56278433
  WF centre and spread   11  (  0.000000,  0.000000,  0.536060 )     0.58769233
  WF centre and spread   12  ( -0.000000, -0.000000,  0.610698 )     0.56278434
  WF centre and spread   13  ( -0.000000,  0.000000,  0.000000 )     0.44430865
  WF centre and spread   14  (  0.000000, -0.000000, -0.000000 )     0.48456800
  WF centre and spread   15  (  0.000000, -0.000000,  0.000000 )     0.44430865
  WF centre and spread   16  ( -0.000000,  0.000000, -0.000000 )     0.48456789
  WF centre and spread   17  ( -0.000000, -0.000000, -0.000000 )     0.44444688
  WF centre and spread   18  (  0.000000,  0.000000,  0.000000 )     0.48451824
  Sum of centres and spreads (  0.000000,  0.000000,  0.000000 )     9.69251636

     15    -0.124E-05     0.0003458756        9.6925163626      14.48  <-- CONV
        O_D=      0.0022847 O_OD=      1.9385955 O_TOT=      9.6925164 <-- SPRD
 Delta: O_D= -0.8273155E-06 O_OD= -0.4137861E-06 O_TOT= -0.1241102E-05 <-- DLTA
 ------------------------------------------------------------------------------
 Cycle:     16
  WF centre and spread    1  ( -0.536694,  0.000000, -0.000000 )     0.58860088
  WF centre and spread    2  ( -0.610886, -0.000000, -0.000000 )     0.56261065
  WF centre and spread    3  (  0.536694,  0.000000, -0.000000 )     0.58860087
  WF centre and spread    4  (  0.610887, -0.000000,  0.000000 )     0.56261062
  WF centre and spread    5  (  0.000000, -0.536694, -0.000000 )     0.58860088
  WF centre and spread    6  ( -0.000000, -0.610886,  0.000000 )     0.56261061
  WF centre and spread    7  (  0.000000,  0.536694, -0.000000 )     0.58860087
  WF centre and spread    8  ( -0.000000,  0.610886,  0.000000 )     0.56261059
  WF centre and spread    9  (  0.000000,  0.000000, -0.536056 )     0.58769176
  WF centre and spread   10  ( -0.000000, -0.000000, -0.610698 )     0.56278480
  WF centre and spread   11  (  0.000000,  0.000000,  0.536057 )     0.58769191
  WF centre and spread   12  ( -0.000000, -0.000000,  0.610698 )     0.56278481
  WF centre and spread   13  ( -0.000000,  0.000000,  0.000000 )     0.44430810
  WF centre and spread   14  (  0.000000, -0.000000, -0.000000 )     0.48456818
  WF centre and spread   15  (  0.000000, -0.000000,  0.000000 )     0.44430810
  WF centre and spread   16  ( -0.000000,  0.000000, -0.000000 )     0.48456807
  WF centre and spread   17  ( -0.000000, -0.000000, -0.000000 )     0.44444656
  WF centre and spread   18  (  0.000000,  0.000000,  0.000000 )     0.48451772
  Sum of centres and spreads (  0.000000,  0.000000,  0.000000 )     9.69251599

     16    -0.376E-06     0.0003967798        9.6925159862      14.50  <-- CONV
        O_D=      0.0022852 O_OD=      1.9385946 O_TOT=      9.6925160 <-- SPRD
 Delta: O_D=  0.5140533E-06 O_OD= -0.8904691E-06 O_TOT= -0.3764158E-06 <-- DLTA
 ------------------------------------------------------------------------------
 Cycle:     17
  WF centre and spread    1  ( -0.536694,  0.000000, -0.000000 )     0.58860094
  WF centre and spread    2  ( -0.610886, -0.000000, -0.000000 )     0.56261059
  WF centre and spread    3  (  0.536694,  0.000000, -0.000000 )     0.58860093
  WF centre and spread    4  (  0.610887, -0.000000,  0.000000 )     0.56261056
  WF centre and spread    5  (  0.000000, -0.536694, -0.000000 )     0.58860094
  WF centre and spread    6  ( -0.000000, -0.610886,  0.000000 )     0.56261055
  WF centre and spread    7  (  0.000000,  0.536694, -0.000000 )     0.58860093
  WF centre and spread    8  ( -0.000000,  0.610887,  0.000000 )     0.56261053
  WF centre and spread    9  (  0.000000,  0.000000, -0.536057 )     0.58769087
  WF centre and spread   10  ( -0.000000, -0.000000, -0.610698 )     0.56278483
  WF centre and spread   11  (  0.000000,  0.000000,  0.536058 )     0.58769102
  WF centre and spread   12  ( -0.000000, -0.000000,  0.610698 )     0.56278484
  WF centre and spread   13  ( -0.000000,  0.000000,  0.000000 )     0.44430839
  WF centre and spread   14  (  0.000000, -0.000000, -0.000000 )     0.48456844
  WF centre and spread   15  (  0.000000, -0.000000,  0.000000 )     0.44430839
  WF centre and spread   16  ( -0.000000,  0.000000, -0.000000 )     0.48456833
  WF centre and spread   17  ( -0.000000, -0.000000, -0.000000 )     0.44444701
  WF centre and spread   18  (  0.000000,  0.000000,  0.000000 )     0.48451783
  Sum of centres and spreads (  0.000000,  0.000000,  0.000000 )     9.69251592

     17    -0.666E-07     0.0001549113        9.6925159196      14.52  <-- CONV
        O_D=      0.0022858 O_OD=      1.9385939 O_TOT=      9.6925159 <-- SPRD
 Delta: O_D=  0.5978208E-06 O_OD= -0.6643878E-06 O_TOT= -0.6656695E-07 <-- DLTA
 ------------------------------------------------------------------------------
 Cycle:     18
  WF centre and spread    1  ( -0.536694,  0.000000, -0.000000 )     0.58860096
  WF centre and spread    2  ( -0.610886, -0.000000, -0.000000 )     0.56261051
  WF centre and spread    3  (  0.536694,  0.000000, -0.000000 )     0.58860096
  WF centre and spread    4  (  0.610887, -0.000000,  0.000000 )     0.56261048
  WF centre and spread    5  (  0.000000, -0.536694, -0.000000 )     0.58860097
  WF centre and spread    6  ( -0.000000, -0.610886,  0.000000 )     0.56261047
  WF centre and spread    7  (  0.000000,  0.536694, -0.000000 )     0.58860095
  WF centre and spread    8  ( -0.000000,  0.610887,  0.000000 )     0.56261045
  WF centre and spread    9  (  0.000000,  0.000000, -0.536058 )     0.58769047
  WF centre and spread   10  ( -0.000000, -0.000000, -0.610698 )     0.56278479
  WF centre and spread   11  (  0.000000,  0.000000,  0.536059 )     0.58769062
  WF centre and spread   12  ( -0.000000, -0.000000,  0.610698 )     0.56278480
  WF centre and spread   13  ( -0.000000,  0.000000,  0.000000 )     0.44430859
  WF centre and spread   14  (  0.000000, -0.000000, -0.000000 )     0.48456860
  WF centre and spread   15  (  0.000000, -0.000000,  0.000000 )     0.44430859
  WF centre and spread   16  ( -0.000000,  0.000000, -0.000000 )     0.48456849
  WF centre and spread   17  ( -0.000000, -0.000000, -0.000000 )     0.44444724
  WF centre and spread   18  (  0.000000,  0.000000,  0.000000 )     0.48451798
  Sum of centres and spreads (  0.000000,  0.000000,  0.000000 )     9.69251591

     18    -0.109E-07     0.0000681518        9.6925159087      14.53  <-- CONV
        O_D=      0.0022859 O_OD=      1.9385938 O_TOT=      9.6925159 <-- SPRD
 Delta: O_D=  0.8757895E-07 O_OD= -0.9850826E-07 O_TOT= -0.1092931E-07 <-- DLTA
 ------------------------------------------------------------------------------
 Cycle:     19
  WF centre and spread    1  ( -0.536693,  0.000000, -0.000000 )     0.58860104
  WF centre and spread    2  ( -0.610886, -0.000000, -0.000000 )     0.56261038
  WF centre and spread    3  (  0.536693,  0.000000, -0.000000 )     0.58860103
  WF centre and spread    4  (  0.610887, -0.000000,  0.000000 )     0.56261035
  WF centre and spread    5  (  0.000000, -0.536693, -0.000000 )     0.58860104
  WF centre and spread    6  ( -0.000000, -0.610887,  0.000000 )     0.56261034
  WF centre and spread    7  (  0.000000,  0.536693, -0.000000 )     0.58860103
  WF centre and spread    8  ( -0.000000,  0.610887,  0.000000 )     0.56261032
  WF centre and spread    9  (  0.000000,  0.000000, -0.536060 )     0.58768976
  WF centre and spread   10  ( -0.000000, -0.000000, -0.610698 )     0.56278472
  WF centre and spread   11  (  0.000000,  0.000000,  0.536061 )     0.58768991
  WF centre and spread   12  ( -0.000000, -0.000000,  0.610698 )     0.56278474
  WF centre and spread   13  ( -0.000000,  0.000000,  0.000000 )     0.44430891
  WF centre and spread   14  (  0.000000, -0.000000, -0.000000 )     0.48456886
  WF centre and spread   15  (  0.000000, -0.000000,  0.000000 )     0.44430891
  WF centre and spread   16  ( -0.000000,  0.000000, -0.000000 )     0.48456875
  WF centre and spread   17  ( -0.000000, -0.000000, -0.000000 )     0.44444760
  WF centre and spread   18  (  0.000000,  0.000000,  0.000000 )     0.48451821
  Sum of centres and spreads (  0.000000,  0.000000,  0.000000 )     9.69251590

     19    -0.737E-08     0.0000402119        9.6925159013      14.55  <-- CONV
        O_D=      0.0022860 O_OD=      1.9385937 O_TOT=      9.6925159 <-- SPRD
 Delta: O_D=  0.1221341E-06 O_OD= -0.1295086E-06 O_TOT= -0.7374474E-08 <-- DLTA
 ------------------------------------------------------------------------------
 Cycle:     20
  WF centre and spread    1  ( -0.536691,  0.000000, -0.000000 )     0.58860128
  WF centre and spread    2  ( -0.610887, -0.000000, -0.000000 )     0.56261027
  WF centre and spread    3  (  0.536691,  0.000000, -0.000000 )     0.58860127
  WF centre and spread    4  (  0.610887, -0.000000,  0.000000 )     0.56261023
  WF centre and spread    5  (  0.000000, -0.536691, -0.000000 )     0.58860128
  WF centre and spread    6  ( -0.000000, -0.610887,  0.000000 )     0.56261023
  WF centre and spread    7  (  0.000000,  0.536691, -0.000000 )     0.58860127
  WF centre and spread    8  ( -0.000000,  0.610887,  0.000000 )     0.56261020
  WF centre and spread    9  (  0.000000,  0.000000, -0.536064 )     0.58768883
  WF centre and spread   10  ( -0.000000, -0.000000, -0.610698 )     0.56278473
  WF centre and spread   11  (  0.000000,  0.000000,  0.536065 )     0.58768897
  WF centre and spread   12  ( -0.000000, -0.000000,  0.610698 )     0.56278474
  WF centre and spread   13  ( -0.000000,  0.000000,  0.000000 )     0.44430912
  WF centre and spread   14  (  0.000000, -0.000000, -0.000000 )     0.48456912
  WF centre and spread   15  (  0.000000, -0.000000,  0.000000 )     0.44430913
  WF centre and spread   16  ( -0.000000,  0.000000, -0.000000 )     0.48456901
  WF centre and spread   17  ( -0.000000, -0.000000, -0.000000 )     0.44444780
  WF centre and spread   18  (  0.000000,  0.000000,  0.000000 )     0.48451841
  Sum of centres and spreads (  0.000000,  0.000000,  0.000000 )     9.69251589

     20    -0.949E-08     0.0000374731        9.6925158918      14.57  <-- CONV
        O_D=      0.0022861 O_OD=      1.9385936 O_TOT=      9.6925159 <-- SPRD
 Delta: O_D=  0.1152612E-06 O_OD= -0.1247483E-06 O_TOT= -0.9487072E-08 <-- DLTA
 ------------------------------------------------------------------------------
 Cycle:     21
  WF centre and spread    1  ( -0.536684,  0.000000, -0.000000 )     0.58860212
  WF centre and spread    2  ( -0.610887, -0.000000, -0.000000 )     0.56261023
  WF centre and spread    3  (  0.536684,  0.000000, -0.000000 )     0.58860212
  WF centre and spread    4  (  0.610887, -0.000000,  0.000000 )     0.56261018
  WF centre and spread    5  (  0.000000, -0.536684, -0.000000 )     0.58860212
  WF centre and spread    6  ( -0.000000, -0.610887,  0.000000 )     0.56261018
  WF centre and spread    7  (  0.000000,  0.536684, -0.000000 )     0.58860211
  WF centre and spread    8  ( -0.000000,  0.610887,  0.000000 )     0.56261016
  WF centre and spread    9  (  0.000000,  0.000000, -0.536079 )     0.58768708
  WF centre and spread   10  ( -0.000000, -0.000000, -0.610698 )     0.56278498
  WF centre and spread   11  (  0.000000,  0.000000,  0.536080 )     0.58768722
  WF centre and spread   12  ( -0.000000, -0.000000,  0.610698 )     0.56278500
  WF centre and spread   13  ( -0.000000,  0.000000,  0.000000 )     0.44430892
  WF centre and spread   14  (  0.000000, -0.000000, -0.000000 )     0.48456945
  WF centre and spread   15  (  0.000000, -0.000000,  0.000000 )     0.44430892
  WF centre and spread   16  ( -0.000000,  0.000000, -0.000000 )     0.48456934
  WF centre and spread   17  ( -0.000000, -0.000000, -0.000000 )     0.44444719
  WF centre and spread   18  (  0.000000,  0.000000,  0.000000 )     0.48451853
  Sum of centres and spreads (  0.000000,  0.000000,  0.000000 )     9.69251586

     21    -0.277E-07     0.0000510874        9.6925158641      14.58  <-- CONV
        O_D=      0.0022862 O_OD=      1.9385935 O_TOT=      9.6925159 <-- SPRD
 Delta: O_D=  0.6082675E-07 O_OD= -0.8857491E-07 O_TOT= -0.2774816E-07 <-- DLTA
 ------------------------------------------------------------------------------
 Cycle:     22
  WF centre and spread    1  ( -0.536680,  0.000000, -0.000000 )     0.58860228
  WF centre and spread    2  ( -0.610887, -0.000000, -0.000000 )     0.56261021
  WF centre and spread    3  (  0.536680,  0.000000, -0.000000 )     0.58860227
  WF centre and spread    4  (  0.610887, -0.000000,  0.000000 )     0.56261016
  WF centre and spread    5  (  0.000000, -0.536681, -0.000000 )     0.58860228
  WF centre and spread    6  ( -0.000000, -0.610887,  0.000000 )     0.56261016
  WF centre and spread    7  (  0.000000,  0.536680, -0.000000 )     0.58860227
  WF centre and spread    8  ( -0.000000,  0.610887,  0.000000 )     0.56261013
  WF centre and spread    9  (  0.000000,  0.000000, -0.536085 )     0.58768683
  WF centre and spread   10  ( -0.000000, -0.000000, -0.610698 )     0.56278503
  WF centre and spread   11  (  0.000000,  0.000000,  0.536086 )     0.58768697
  WF centre and spread   12  ( -0.000000, -0.000000,  0.610698 )     0.56278505
  WF centre and spread   13  ( -0.000000,  0.000000,  0.000000 )     0.44430879
  WF centre and spread   14  (  0.000000, -0.000000, -0.000000 )     0.48456970
  WF centre and spread   15  (  0.000000, -0.000000,  0.000000 )     0.44430879
  WF centre and spread   16  ( -0.000000,  0.000000, -0.000000 )     0.48456959
  WF centre and spread   17  ( -0.000000, -0.000000, -0.000000 )     0.44444669
  WF centre and spread   18  (  0.000000,  0.000000,  0.000000 )     0.48451867
  Sum of centres and spreads (  0.000000,  0.000000,  0.000000 )     9.69251585

     22    -0.146E-07     0.0000703668        9.6925158495      14.60  <-- CONV
        O_D=      0.0022860 O_OD=      1.9385936 O_TOT=      9.6925158 <-- SPRD
 Delta: O_D= -0.1360298E-06 O_OD=  0.1214485E-06 O_TOT= -0.1458129E-07 <-- DLTA
 ------------------------------------------------------------------------------
 Cycle:     23
  WF centre and spread    1  ( -0.536680,  0.000000, -0.000000 )     0.58860212
  WF centre and spread    2  ( -0.610887, -0.000000, -0.000000 )     0.56261022
  WF centre and spread    3  (  0.536680,  0.000000, -0.000000 )     0.58860211
  WF centre and spread    4  (  0.610887, -0.000000,  0.000000 )     0.56261018
  WF centre and spread    5  (  0.000000, -0.536680, -0.000000 )     0.58860212
  WF centre and spread    6  ( -0.000000, -0.610887,  0.000000 )     0.56261018
  WF centre and spread    7  (  0.000000,  0.536680, -0.000000 )     0.58860211
  WF centre and spread    8  ( -0.000000,  0.610887,  0.000000 )     0.56261015
  WF centre and spread    9  (  0.000000,  0.000000, -0.536085 )     0.58768722
  WF centre and spread   10  ( -0.000000, -0.000000, -0.610698 )     0.56278500
  WF centre and spread   11  (  0.000000,  0.000000,  0.536086 )     0.58768736
  WF centre and spread   12  ( -0.000000, -0.000000,  0.610698 )     0.56278502
  WF centre and spread   13  ( -0.000000,  0.000000,  0.000000 )     0.44430874
  WF centre and spread   14  (  0.000000, -0.000000, -0.000000 )     0.48456976
  WF centre and spread   15  (  0.000000, -0.000000,  0.000000 )     0.44430874
  WF centre and spread   16  ( -0.000000,  0.000000, -0.000000 )     0.48456965
  WF centre and spread   17  ( -0.000000, -0.000000, -0.000000 )     0.44444644
  WF centre and spread   18  (  0.000000,  0.000000,  0.000000 )     0.48451871
  Sum of centres and spreads (  0.000000,  0.000000,  0.000000 )     9.69251585

     23    -0.395E-08     0.0000402207        9.6925158455      14.62  <-- CONV
        O_D=      0.0022860 O_OD=      1.9385937 O_TOT=      9.6925158 <-- SPRD
 Delta: O_D= -0.8381922E-07 O_OD=  0.7986854E-07 O_TOT= -0.3950682E-08 <-- DLTA
 ------------------------------------------------------------------------------
 Cycle:     24
  WF centre and spread    1  ( -0.536681,  0.000000, -0.000000 )     0.58860200
  WF centre and spread    2  ( -0.610887, -0.000000, -0.000000 )     0.56261026
  WF centre and spread    3  (  0.536681,  0.000000, -0.000000 )     0.58860199
  WF centre and spread    4  (  0.610887, -0.000000,  0.000000 )     0.56261021
  WF centre and spread    5  (  0.000000, -0.536681, -0.000000 )     0.58860200
  WF centre and spread    6  ( -0.000000, -0.610887,  0.000000 )     0.56261021
  WF centre and spread    7  (  0.000000,  0.536681, -0.000000 )     0.58860199
  WF centre and spread    8  ( -0.000000,  0.610887,  0.000000 )     0.56261019
  WF centre and spread    9  (  0.000000,  0.000000, -0.536084 )     0.58768752
  WF centre and spread   10  ( -0.000000, -0.000000, -0.610698 )     0.56278499
[...]
 Delta: O_D= -0.3035727E-11 O_OD=  0.1645573E-11 O_TOT= -0.1390887E-11 <-- DLTA
 ------------------------------------------------------------------------------
 Cycle:     92
  WF centre and spread    1  ( -0.536689,  0.000000, -0.000000 )     0.58860131
  WF centre and spread    2  ( -0.610887, -0.000000, -0.000000 )     0.56261040
  WF centre and spread    3  (  0.536689,  0.000000, -0.000000 )     0.58860130
  WF centre and spread    4  (  0.610887, -0.000000,  0.000000 )     0.56261037
  WF centre and spread    5  (  0.000000, -0.536689, -0.000000 )     0.58860131
  WF centre and spread    6  ( -0.000000, -0.610887,  0.000000 )     0.56261036
  WF centre and spread    7  (  0.000000,  0.536689, -0.000000 )     0.58860130
  WF centre and spread    8  ( -0.000000,  0.610887,  0.000000 )     0.56261034
  WF centre and spread    9  (  0.000000,  0.000000, -0.536068 )     0.58768862
  WF centre and spread   10  ( -0.000000, -0.000000, -0.610698 )     0.56278496
  WF centre and spread   11  (  0.000000,  0.000000,  0.536069 )     0.58768879
  WF centre and spread   12  ( -0.000000, -0.000000,  0.610698 )     0.56278497
  WF centre and spread   13  ( -0.000000,  0.000000,  0.000000 )     0.44430847
  WF centre and spread   14  (  0.000000, -0.000000, -0.000000 )     0.48457009
  WF centre and spread   15  (  0.000000, -0.000000,  0.000000 )     0.44430847
  WF centre and spread   16  ( -0.000000,  0.000000, -0.000000 )     0.48456998
  WF centre and spread   17  ( -0.000000, -0.000000, -0.000000 )     0.44444595
  WF centre and spread   18  (  0.000000,  0.000000,  0.000000 )     0.48451886
  Sum of centres and spreads (  0.000000,  0.000000,  0.000000 )     9.69251584

     92    -0.939E-10     0.0000018711        9.6925158352      15.61  <-- CONV
        O_D=      0.0022860 O_OD=      1.9385937 O_TOT=      9.6925158 <-- SPRD
 Delta: O_D= -0.8237269E-10 O_OD= -0.1150080E-10 O_TOT= -0.9387335E-10 <-- DLTA
 ------------------------------------------------------------------------------
 Cycle:     93
  WF centre and spread    1  ( -0.536689,  0.000000, -0.000000 )     0.58860131
  WF centre and spread    2  ( -0.610887, -0.000000, -0.000000 )     0.56261040
  WF centre and spread    3  (  0.536689,  0.000000, -0.000000 )     0.58860130
  WF centre and spread    4  (  0.610887, -0.000000,  0.000000 )     0.56261037
  WF centre and spread    5  (  0.000000, -0.536689, -0.000000 )     0.58860131
  WF centre and spread    6  ( -0.000000, -0.610887,  0.000000 )     0.56261036
  WF centre and spread    7  (  0.000000,  0.536689, -0.000000 )     0.58860130
  WF centre and spread    8  ( -0.000000,  0.610887,  0.000000 )     0.56261034
  WF centre and spread    9  (  0.000000,  0.000000, -0.536068 )     0.58768862
  WF centre and spread   10  ( -0.000000, -0.000000, -0.610698 )     0.56278496
  WF centre and spread   11  (  0.000000,  0.000000,  0.536069 )     0.58768880
  WF centre and spread   12  ( -0.000000, -0.000000,  0.610698 )     0.56278497
  WF centre and spread   13  ( -0.000000,  0.000000,  0.000000 )     0.44430847
  WF centre and spread   14  (  0.000000, -0.000000, -0.000000 )     0.48457009
  WF centre and spread   15  (  0.000000, -0.000000,  0.000000 )     0.44430847
  WF centre and spread   16  ( -0.000000,  0.000000, -0.000000 )     0.48456998
  WF centre and spread   17  ( -0.000000, -0.000000, -0.000000 )     0.44444593
  WF centre and spread   18  (  0.000000,  0.000000,  0.000000 )     0.48451888
  Sum of centres and spreads (  0.000000,  0.000000,  0.000000 )     9.69251584

     93    -0.152E-09     0.0000019059        9.6925158351      15.63  <-- CONV
        O_D=      0.0022860 O_OD=      1.9385937 O_TOT=      9.6925158 <-- SPRD
 Delta: O_D=  0.1396344E-09 O_OD= -0.2912572E-09 O_TOT= -0.1516227E-09 <-- DLTA
 ------------------------------------------------------------------------------
 Cycle:     94
  WF centre and spread    1  ( -0.536689,  0.000000, -0.000000 )     0.58860131
  WF centre and spread    2  ( -0.610887, -0.000000, -0.000000 )     0.56261040
  WF centre and spread    3  (  0.536689,  0.000000, -0.000000 )     0.58860130
  WF centre and spread    4  (  0.610887, -0.000000,  0.000000 )     0.56261037
  WF centre and spread    5  (  0.000000, -0.536689, -0.000000 )     0.58860131
  WF centre and spread    6  ( -0.000000, -0.610887,  0.000000 )     0.56261036
  WF centre and spread    7  (  0.000000,  0.536689, -0.000000 )     0.58860130
  WF centre and spread    8  ( -0.000000,  0.610887,  0.000000 )     0.56261034
  WF centre and spread    9  (  0.000000,  0.000000, -0.536068 )     0.58768862
  WF centre and spread   10  ( -0.000000, -0.000000, -0.610698 )     0.56278496
  WF centre and spread   11  (  0.000000,  0.000000,  0.536069 )     0.58768880
  WF centre and spread   12  ( -0.000000, -0.000000,  0.610698 )     0.56278497
  WF centre and spread   13  ( -0.000000,  0.000000,  0.000000 )     0.44430847
  WF centre and spread   14  (  0.000000, -0.000000, -0.000000 )     0.48457009
  WF centre and spread   15  (  0.000000, -0.000000,  0.000000 )     0.44430847
  WF centre and spread   16  ( -0.000000,  0.000000, -0.000000 )     0.48456998
  WF centre and spread   17  ( -0.000000, -0.000000, -0.000000 )     0.44444593
  WF centre and spread   18  (  0.000000,  0.000000,  0.000000 )     0.48451888
  Sum of centres and spreads (  0.000000,  0.000000,  0.000000 )     9.69251584

     94    -0.430E-12     0.0000018974        9.6925158351      15.64  <-- CONV
        O_D=      0.0022860 O_OD=      1.9385937 O_TOT=      9.6925158 <-- SPRD
 Delta: O_D=  0.2637794E-12 O_OD= -0.6945555E-12 O_TOT= -0.4298784E-12 <-- DLTA
 ------------------------------------------------------------------------------
 Cycle:     95
  WF centre and spread    1  ( -0.536689,  0.000000, -0.000000 )     0.58860131
  WF centre and spread    2  ( -0.610887, -0.000000, -0.000000 )     0.56261040
  WF centre and spread    3  (  0.536689,  0.000000, -0.000000 )     0.58860130
  WF centre and spread    4  (  0.610887, -0.000000,  0.000000 )     0.56261037
  WF centre and spread    5  (  0.000000, -0.536689, -0.000000 )     0.58860131
  WF centre and spread    6  ( -0.000000, -0.610887,  0.000000 )     0.56261036
  WF centre and spread    7  (  0.000000,  0.536689, -0.000000 )     0.58860130
  WF centre and spread    8  ( -0.000000,  0.610887,  0.000000 )     0.56261034
  WF centre and spread    9  (  0.000000,  0.000000, -0.536068 )     0.58768862
  WF centre and spread   10  ( -0.000000, -0.000000, -0.610698 )     0.56278496
  WF centre and spread   11  (  0.000000,  0.000000,  0.536069 )     0.58768880
  WF centre and spread   12  ( -0.000000, -0.000000,  0.610698 )     0.56278497
  WF centre and spread   13  ( -0.000000,  0.000000,  0.000000 )     0.44430847
  WF centre and spread   14  (  0.000000, -0.000000, -0.000000 )     0.48457009
  WF centre and spread   15  (  0.000000, -0.000000,  0.000000 )     0.44430847
  WF centre and spread   16  ( -0.000000,  0.000000, -0.000000 )     0.48456998
  WF centre and spread   17  ( -0.000000, -0.000000, -0.000000 )     0.44444593
  WF centre and spread   18  (  0.000000,  0.000000,  0.000000 )     0.48451888
  Sum of centres and spreads (  0.000000,  0.000000,  0.000000 )     9.69251584

     95    -0.322E-11     0.0000018948        9.6925158350      15.65  <-- CONV
        O_D=      0.0022860 O_OD=      1.9385937 O_TOT=      9.6925158 <-- SPRD
 Delta: O_D=  0.2518964E-11 O_OD= -0.5735190E-11 O_TOT= -0.3216982E-11 <-- DLTA
 ------------------------------------------------------------------------------
 Cycle:     96
  WF centre and spread    1  ( -0.536689,  0.000000, -0.000000 )     0.58860131
  WF centre and spread    2  ( -0.610887, -0.000000, -0.000000 )     0.56261040
  WF centre and spread    3  (  0.536689,  0.000000, -0.000000 )     0.58860130
  WF centre and spread    4  (  0.610887, -0.000000,  0.000000 )     0.56261037
  WF centre and spread    5  (  0.000000, -0.536689, -0.000000 )     0.58860131
  WF centre and spread    6  ( -0.000000, -0.610887,  0.000000 )     0.56261036
  WF centre and spread    7  (  0.000000,  0.536689, -0.000000 )     0.58860130
  WF centre and spread    8  ( -0.000000,  0.610887,  0.000000 )     0.56261034
  WF centre and spread    9  (  0.000000,  0.000000, -0.536068 )     0.58768862
  WF centre and spread   10  ( -0.000000, -0.000000, -0.610698 )     0.56278496
  WF centre and spread   11  (  0.000000,  0.000000,  0.536069 )     0.58768880
  WF centre and spread   12  ( -0.000000, -0.000000,  0.610698 )     0.56278497
  WF centre and spread   13  ( -0.000000,  0.000000,  0.000000 )     0.44430847
  WF centre and spread   14  (  0.000000, -0.000000, -0.000000 )     0.48457009
  WF centre and spread   15  (  0.000000, -0.000000,  0.000000 )     0.44430847
  WF centre and spread   16  ( -0.000000,  0.000000, -0.000000 )     0.48456998
  WF centre and spread   17  ( -0.000000, -0.000000, -0.000000 )     0.44444593
  WF centre and spread   18  (  0.000000,  0.000000,  0.000000 )     0.48451888
  Sum of centres and spreads (  0.000000,  0.000000,  0.000000 )     9.69251584

     96    -0.104E-11     0.0000018728        9.6925158350      15.66  <-- CONV
        O_D=      0.0022860 O_OD=      1.9385937 O_TOT=      9.6925158 <-- SPRD
 Delta: O_D=  0.9967717E-12 O_OD= -0.2040146E-11 O_TOT= -0.1042721E-11 <-- DLTA
 ------------------------------------------------------------------------------
 Cycle:     97
  WF centre and spread    1  ( -0.536689,  0.000000, -0.000000 )     0.58860131
  WF centre and spread    2  ( -0.610887, -0.000000, -0.000000 )     0.56261040
  WF centre and spread    3  (  0.536689,  0.000000, -0.000000 )     0.58860130
  WF centre and spread    4  (  0.610887, -0.000000,  0.000000 )     0.56261037
  WF centre and spread    5  (  0.000000, -0.536689, -0.000000 )     0.58860131
  WF centre and spread    6  ( -0.000000, -0.610887,  0.000000 )     0.56261036
  WF centre and spread    7  (  0.000000,  0.536689, -0.000000 )     0.58860130
  WF centre and spread    8  ( -0.000000,  0.610887,  0.000000 )     0.56261034
  WF centre and spread    9  (  0.000000,  0.000000, -0.536068 )     0.58768862
  WF centre and spread   10  ( -0.000000, -0.000000, -0.610698 )     0.56278496
  WF centre and spread   11  (  0.000000,  0.000000,  0.536069 )     0.58768880
  WF centre and spread   12  ( -0.000000, -0.000000,  0.610698 )     0.56278497
  WF centre and spread   13  ( -0.000000,  0.000000,  0.000000 )     0.44430847
  WF centre and spread   14  (  0.000000, -0.000000, -0.000000 )     0.48457009
  WF centre and spread   15  (  0.000000, -0.000000,  0.000000 )     0.44430847
  WF centre and spread   16  ( -0.000000,  0.000000, -0.000000 )     0.48456998
  WF centre and spread   17  ( -0.000000, -0.000000, -0.000000 )     0.44444593
  WF centre and spread   18  (  0.000000,  0.000000,  0.000000 )     0.48451888
  Sum of centres and spreads (  0.000000,  0.000000,  0.000000 )     9.69251584

     97    -0.138E-11     0.0000018667        9.6925158350      15.67  <-- CONV
        O_D=      0.0022860 O_OD=      1.9385937 O_TOT=      9.6925158 <-- SPRD
 Delta: O_D=  0.1500642E-11 O_OD= -0.2878364E-11 O_TOT= -0.1378453E-11 <-- DLTA
 ------------------------------------------------------------------------------
 Cycle:     98
  WF centre and spread    1  ( -0.536689,  0.000000, -0.000000 )     0.58860131
  WF centre and spread    2  ( -0.610887, -0.000000, -0.000000 )     0.56261040
  WF centre and spread    3  (  0.536689,  0.000000, -0.000000 )     0.58860130
  WF centre and spread    4  (  0.610887, -0.000000,  0.000000 )     0.56261036
  WF centre and spread    5  (  0.000000, -0.536689, -0.000000 )     0.58860131
  WF centre and spread    6  ( -0.000000, -0.610887,  0.000000 )     0.56261036
  WF centre and spread    7  (  0.000000,  0.536689, -0.000000 )     0.58860130
  WF centre and spread    8  ( -0.000000,  0.610887,  0.000000 )     0.56261034
  WF centre and spread    9  (  0.000000,  0.000000, -0.536068 )     0.58768863
  WF centre and spread   10  ( -0.000000, -0.000000, -0.610698 )     0.56278495
  WF centre and spread   11  (  0.000000,  0.000000,  0.536069 )     0.58768880
  WF centre and spread   12  ( -0.000000, -0.000000,  0.610698 )     0.56278497
  WF centre and spread   13  ( -0.000000,  0.000000,  0.000000 )     0.44430846
  WF centre and spread   14  (  0.000000, -0.000000, -0.000000 )     0.48457009
  WF centre and spread   15  (  0.000000, -0.000000,  0.000000 )     0.44430846
  WF centre and spread   16  ( -0.000000,  0.000000, -0.000000 )     0.48456998
  WF centre and spread   17  ( -0.000000, -0.000000, -0.000000 )     0.44444592
  WF centre and spread   18  (  0.000000,  0.000000,  0.000000 )     0.48451889
  Sum of centres and spreads (  0.000000,  0.000000,  0.000000 )     9.69251583

     98    -0.771E-10     0.0000018594        9.6925158350      15.69  <-- CONV
        O_D=      0.0022860 O_OD=      1.9385937 O_TOT=      9.6925158 <-- SPRD
 Delta: O_D=  0.1089744E-09 O_OD= -0.1861169E-09 O_TOT= -0.7714185E-10 <-- DLTA
 ------------------------------------------------------------------------------
 Cycle:     99
  WF centre and spread    1  ( -0.536689,  0.000000, -0.000000 )     0.58860131
  WF centre and spread    2  ( -0.610887, -0.000000, -0.000000 )     0.56261040
  WF centre and spread    3  (  0.536689,  0.000000, -0.000000 )     0.58860130
  WF centre and spread    4  (  0.610887, -0.000000,  0.000000 )     0.56261036
  WF centre and spread    5  (  0.000000, -0.536689, -0.000000 )     0.58860131
  WF centre and spread    6  ( -0.000000, -0.610887,  0.000000 )     0.56261036
  WF centre and spread    7  (  0.000000,  0.536689, -0.000000 )     0.58860130
  WF centre and spread    8  ( -0.000000,  0.610887,  0.000000 )     0.56261034
  WF centre and spread    9  (  0.000000,  0.000000, -0.536068 )     0.58768863
  WF centre and spread   10  ( -0.000000, -0.000000, -0.610698 )     0.56278495
  WF centre and spread   11  (  0.000000,  0.000000,  0.536069 )     0.58768880
  WF centre and spread   12  ( -0.000000, -0.000000,  0.610698 )     0.56278497
  WF centre and spread   13  ( -0.000000,  0.000000,  0.000000 )     0.44430846
  WF centre and spread   14  (  0.000000, -0.000000, -0.000000 )     0.48457009
  WF centre and spread   15  (  0.000000, -0.000000,  0.000000 )     0.44430846
  WF centre and spread   16  ( -0.000000,  0.000000, -0.000000 )     0.48456998
  WF centre and spread   17  ( -0.000000, -0.000000, -0.000000 )     0.44444592
  WF centre and spread   18  (  0.000000,  0.000000,  0.000000 )     0.48451889
  Sum of centres and spreads (  0.000000,  0.000000,  0.000000 )     9.69251583

     99    -0.261E-11     0.0000023810        9.6925158350      15.70  <-- CONV
        O_D=      0.0022860 O_OD=      1.9385937 O_TOT=      9.6925158 <-- SPRD
 Delta: O_D=  0.7141797E-11 O_OD= -0.9746870E-11 O_TOT= -0.2605915E-11 <-- DLTA
 ------------------------------------------------------------------------------
 Cycle:    100
  WF centre and spread    1  ( -0.536689,  0.000000, -0.000000 )     0.58860131
  WF centre and spread    2  ( -0.610887, -0.000000, -0.000000 )     0.56261040
  WF centre and spread    3  (  0.536689,  0.000000, -0.000000 )     0.58860130
  WF centre and spread    4  (  0.610887, -0.000000,  0.000000 )     0.56261036
  WF centre and spread    5  (  0.000000, -0.536689, -0.000000 )     0.58860131
  WF centre and spread    6  ( -0.000000, -0.610887,  0.000000 )     0.56261036
  WF centre and spread    7  (  0.000000,  0.536689, -0.000000 )     0.58860130
  WF centre and spread    8  ( -0.000000,  0.610887,  0.000000 )     0.56261034
  WF centre and spread    9  (  0.000000,  0.000000, -0.536068 )     0.58768863
  WF centre and spread   10  ( -0.000000, -0.000000, -0.610698 )     0.56278495
  WF centre and spread   11  (  0.000000,  0.000000,  0.536069 )     0.58768880
  WF centre and spread   12  ( -0.000000, -0.000000,  0.610698 )     0.56278497
  WF centre and spread   13  ( -0.000000,  0.000000,  0.000000 )     0.44430846
  WF centre and spread   14  (  0.000000, -0.000000, -0.000000 )     0.48457009
  WF centre and spread   15  (  0.000000, -0.000000,  0.000000 )     0.44430846
  WF centre and spread   16  ( -0.000000,  0.000000, -0.000000 )     0.48456998
  WF centre and spread   17  ( -0.000000, -0.000000, -0.000000 )     0.44444592
  WF centre and spread   18  (  0.000000,  0.000000,  0.000000 )     0.48451889
  Sum of centres and spreads (  0.000000,  0.000000,  0.000000 )     9.69251583

    100    -0.588E-12     0.0000024024        9.6925158350      15.71  <-- CONV
        O_D=      0.0022860 O_OD=      1.9385937 O_TOT=      9.6925158 <-- SPRD
 Delta: O_D=  0.3622349E-11 O_OD= -0.4211076E-11 O_TOT= -0.5879741E-12 <-- DLTA
 ------------------------------------------------------------------------------

 Writing checkpoint file iron.chk... done

 Final State
  WF centre and spread    1  ( -0.536689,  0.000000, -0.000000 )     0.58860131
  WF centre and spread    2  ( -0.610887, -0.000000, -0.000000 )     0.56261040
  WF centre and spread    3  (  0.536689,  0.000000, -0.000000 )     0.58860130
  WF centre and spread    4  (  0.610887, -0.000000,  0.000000 )     0.56261036
  WF centre and spread    5  (  0.000000, -0.536689, -0.000000 )     0.58860131
  WF centre and spread    6  ( -0.000000, -0.610887,  0.000000 )     0.56261036
  WF centre and spread    7  (  0.000000,  0.536689, -0.000000 )     0.58860130
  WF centre and spread    8  ( -0.000000,  0.610887,  0.000000 )     0.56261034
  WF centre and spread    9  (  0.000000,  0.000000, -0.536068 )     0.58768863
  WF centre and spread   10  ( -0.000000, -0.000000, -0.610698 )     0.56278495
  WF centre and spread   11  (  0.000000,  0.000000,  0.536069 )     0.58768880
  WF centre and spread   12  ( -0.000000, -0.000000,  0.610698 )     0.56278497
  WF centre and spread   13  ( -0.000000,  0.000000,  0.000000 )     0.44430846
  WF centre and spread   14  (  0.000000, -0.000000, -0.000000 )     0.48457009
  WF centre and spread   15  (  0.000000, -0.000000,  0.000000 )     0.44430846
  WF centre and spread   16  ( -0.000000,  0.000000, -0.000000 )     0.48456998
  WF centre and spread   17  ( -0.000000, -0.000000, -0.000000 )     0.44444592
  WF centre and spread   18  (  0.000000,  0.000000,  0.000000 )     0.48451889
  Sum of centres and spreads (  0.000000,  0.000000,  0.000000 )     9.69251583

         Spreads (Ang^2)       Omega I      =     7.751636229
        ================       Omega D      =     0.002285952
                               Omega OD     =     1.938593654
    Final Spread (Ang^2)       Omega Total  =     9.692515835
 ------------------------------------------------------------------------------
 Time for wannierise            1.476 (sec)

 Writing checkpoint file iron.chk... done

 Time for plotting              0.000 (sec)
 Total Execution Time          17.349 (sec)

 *===========================================================================*
 |                             TIMING INFORMATION                            |
 *===========================================================================*
 |    Tag                                                Ncalls      Time (s)|
 |---------------------------------------------------------------------------|
 |kmesh: get                                        :         1         0.017|
 |overlap: allocate                                 :         1         0.000|
 |overlap: read                                     :         1         1.523|
 |dis: main                                         :         1        14.310|
 |wann: main                                        :         1         1.476|
 |plot: main                                        :         1         0.000|
 *---------------------------------------------------------------------------*

 All done: wannier90 exiting
