
     Program PW2WANNIER v.8.0dev starts on 22Jul2026 at  1:16:12 
        Git branch: develop
        Last git commit: 5cea3446c983f943a236bc42ed84c76056277d1b
        Last git commit date: Fri Jul 17 20:25:47 2026 +0000
        Last git commit subject: Merge branch 'flang-suppress-warning' into 'develo

     This program is part of the open-source Quantum ESPRESSO suite
     for quantum simulation of materials; please cite
         "P. Giannozzi et al., J. Phys.:Condens. Matter 21 395502 (2009);
         "P. Giannozzi et al., J. Phys.:Condens. Matter 29 465901 (2017);
         "P. Giannozzi et al., J. Chem. Phys. 152 154105 (2020);
          URL http://www.quantum-espresso.org", 
     in publications or presentations arising from this work. More details at
     http://www.quantum-espresso.org/quote

     Parallel version (MPI), running on     4 processors

     MPI processes distributed on     1 nodes
     R & G space division:  proc/nbgrp/npool/nimage =       4
     883 MiB available memory on the printing compute node when the environment starts


     Reading nscf_save data

     Reading xml data from directory:

     ./work/iron.save/

     IMPORTANT: XC functional enforced from input :
     Exchange-correlation= PBE
                           (   1   4   3   4   0   0   0)
     Any further DFT definition will be discarded
     Please, verify this is what you really want


     Parallelization info
     --------------------
     sticks:   dense  smooth     PW     G-vecs:    dense   smooth      PW
     Min         205      83     34                 3740      951     263
     Max         206      84     35                 3742      952     265
     Sum         821     333    137                14963     3805    1055

     Using Slab Decomposition


     Check: negative core charge=   -0.000085
     Reading collected, re-writing distributed wavefunctions

      Spin CASE ( non-collinear )

  Wannier mode is: standalone     

  -----------------
  *** Reading nnkp 
  -----------------

  Checking info from wannier.nnkp file

  - Real lattice is ok
  - Reciprocal lattice is ok
  - K-points are ok
  - Number of wannier functions is ok ( 18)
  - All guiding functions are given 

  Projections:
    0.000000    0.000000    0.000000 -5  1  1    1.000000
    0.000000    0.000000    0.000000 -5  1  1    1.000000
    0.000000    0.000000    0.000000 -5  2  1    1.000000
    0.000000    0.000000    0.000000 -5  2  1    1.000000
    0.000000    0.000000    0.000000 -5  3  1    1.000000
    0.000000    0.000000    0.000000 -5  3  1    1.000000
    0.000000    0.000000    0.000000 -5  4  1    1.000000
    0.000000    0.000000    0.000000 -5  4  1    1.000000
    0.000000    0.000000    0.000000 -5  5  1    1.000000
    0.000000    0.000000    0.000000 -5  5  1    1.000000
    0.000000    0.000000    0.000000 -5  6  1    1.000000
    0.000000    0.000000    0.000000 -5  6  1    1.000000
    0.000000    0.000000    0.000000  2  2  1    1.000000
    0.000000    0.000000    0.000000  2  2  1    1.000000
    0.000000    0.000000    0.000000  2  3  1    1.000000
    0.000000    0.000000    0.000000  2  3  1    1.000000
    0.000000    0.000000    0.000000  2  5  1    1.000000
    0.000000    0.000000    0.000000  2  5  1    1.000000

  Reading data about k-point neighbours 

  All neighbours are found 

  Opening pp-files 


  --------------------------
  *** Compute  A projections
  --------------------------

  Number of local k points =       64
       1       2       3       4       5       6       7       8       9      10
      11      12      13      14      15      16      17      18      19      20
      21      22      23      24      25      26      27      28      29      30
      31      32      33      34      35      36      37      38      39      40
      41      42      43      44      45      46      47      48      49      50
      51      52      53      54      55      56      57      58      59      60
      61      62      63      64
  AMN calculated

  ---------------
  *** Compute  M 
  ---------------

  Number of local k points =       64
       1       2       3       4       5       6       7       8       9      10
      11      12      13      14      15      16      17      18      19      20
      21      22      23      24      25      26      27      28      29      30
      31      32      33      34      35      36      37      38      39      40
      41      42      43      44      45      46      47      48      49      50
      51      52      53      54      55      56      57      58      59      60
      61      62      63      64
  MMN calculated

  ------------------
  *** Compute  Spin 
  ------------------

  Number of local k points =       64
       1       2       3       4       5       6       7       8       9      10
      11      12      13      14      15      16      17      18      19      20
      21      22      23      24      25      26      27      28      29      30
      31      32      33      34      35      36      37      38      39      40
      41      42      43      44      45      46      47      48      49      50
      51      52      53      54      55      56      57      58      59      60
      61      62      63      64
  SPIN calculated

  -----------------------------------
  *** Orbital terms are not computed 
  -----------------------------------

  -----------------------------------
  *** SHC terms are not computed 
  -----------------------------------

  ----------------
  *** Write bands 
  ----------------


  -----------------------------
  *** Plot info is not printed 
  -----------------------------

  -----------------------------
  *** Parity info is not printed 
  -----------------------------

  ------------
  *** Stop pp 
  ------------


     init_pw2wan  :      0.66s CPU      0.73s WALL (       1 calls)
     compute_amn  :      1.43s CPU      1.45s WALL (       1 calls)
     compute_mmn  :     17.22s CPU     17.93s WALL (       1 calls)
     compute_spin :      0.76s CPU      0.78s WALL (       1 calls)

     Internal routines:
     compute_u_kb :      1.97s CPU      2.21s WALL (     768 calls)

     PW2WANNIER   :     20.08s CPU     20.89s WALL


   This run was terminated on:   1:16:33  22Jul2026            

=------------------------------------------------------------------------------=
   JOB DONE.
=------------------------------------------------------------------------------=

